
     Program PWSCF v.7.5 starts on 20Jun2026 at 10:44:32 

     This program is part of the open-source Quantum ESPRESSO suite
     for quantum simulation of materials; please cite
         "P. Giannozzi et al., J. Phys.:Condens. Matter 21 395502 (2009);
         "P. Giannozzi et al., J. Phys.:Condens. Matter 29 465901 (2017);
         "P. Giannozzi et al., J. Chem. Phys. 152 154105 (2020);
          URL http://www.quantum-espresso.org", 
     in publications or presentations arising from this work. More details at
     http://www.quantum-espresso.org/quote

     Parallel version (MPI), running on    24 processors

     MPI processes distributed on     1 nodes
     6597 MiB available memory on the printing compute node when the environment starts

     Waiting for input...
     Reading input from standard input

     Current dimensions of program PWSCF are:
     Max number of different atomic species (ntypx) = 10
     Max number of k-points (npk) =  40000
     Max angular momentum in pseudopotentials (lmaxx) =  4
     file Mo.pbe-spn-kjpaw_psl.1.0.0.UPF: wavefunction(s)  4S 4D renormalized
     file Se.pbe-dn-kjpaw_psl.1.0.0.UPF: wavefunction(s)  4S 4P 3D renormalized

     IMPORTANT: XC functional enforced from input :
     Exchange-correlation= VDW-DF2-B86R
                           (   1   4  26   0   2   0   0)
     Any further DFT definition will be discarded
     Please, verify this is what you really want


     R & G space division:  proc/nbgrp/npool/nimage =      24
     Subspace diagonalization in iterative solution of the eigenvalue problem:
     a serial algorithm will be used


     Parallelization info
     --------------------
     sticks:   dense  smooth     PW     G-vecs:    dense   smooth      PW
     Min          69      35     10                35537    12585    1924
     Max          70      36     11                35620    12648    1981
     Sum        1675     847    241               853823   302525   46513

     Using Slab Decomposition



     bravais-lattice index     =            4
     lattice parameter (alat)  =       6.1794  a.u.
     unit-cell volume          =    3124.5879 (a.u.)^3
     number of atoms/cell      =            6
     number of atomic types    =            2
     number of electrons       =        92.00
     number of Kohn-Sham states=           55
     kinetic-energy cutoff     =      80.0000  Ry
     charge density cutoff     =     640.0000  Ry
     scf convergence threshold =      1.0E-08
     mixing beta               =       0.3000
     number of iterations used =            8  local-TF  mixing
     Exchange-correlation= VDW-DF2-B86R
                           (   1   4  26   0   2   0   0)

     celldm(1)=   6.179404  celldm(2)=   0.000000  celldm(3)=  15.290520
     celldm(4)=   0.000000  celldm(5)=   0.000000  celldm(6)=   0.000000

     crystal axes: (cart. coord. in units of alat)
               a(1) = (   1.000000   0.000000   0.000000 )  
               a(2) = (  -0.500000   0.866025   0.000000 )  
               a(3) = (   0.000000   0.000000  15.290520 )  

     reciprocal axes: (cart. coord. in units 2 pi/alat)
               b(1) = (  1.000000  0.577350 -0.000000 )  
               b(2) = (  0.000000  1.154701  0.000000 )  
               b(3) = (  0.000000 -0.000000  0.065400 )  


     PseudoPot. # 1 for Mo read from file:
     ./pseudo/Mo.pbe-spn-kjpaw_psl.1.0.0.UPF
     MD5 check sum: 4396e0c640fcce5c25f020efccf1ab12
     Pseudo is Projector augmented-wave + core cor, Zval = 14.0
     Generated using &quot;atomic&quot; code by A. Dal Corso  v.6.3
     Shape of augmentation charge: PSQ
     Using radial grid of 1229 points,  6 beta functions with: 
                l(1) =   0
                l(2) =   0
                l(3) =   1
                l(4) =   1
                l(5) =   2
                l(6) =   2
     Q(r) pseudized with 0 coefficients 


     PseudoPot. # 2 for Se read from file:
     ./pseudo/Se.pbe-dn-kjpaw_psl.1.0.0.UPF
     MD5 check sum: ac240dd2bae32a30e0bf3a38df9c8785
     Pseudo is Projector augmented-wave + core cor, Zval = 16.0
     Generated using &quot;atomic&quot; code by A. Dal Corso  v.6.3
     Shape of augmentation charge: PSQ
     Using radial grid of 1211 points,  6 beta functions with: 
                l(1) =   0
                l(2) =   0
                l(3) =   1
                l(4) =   1
                l(5) =   2
                l(6) =   2
     Q(r) pseudized with 0 coefficients 


     atomic species   valence    mass     pseudopotential
     Mo               14.00    95.96000     Mo( 1.00)
     Se               16.00    78.96000     Se( 1.00)

      6 Sym. Ops. (no inversion) found



   Cartesian axes

     site n.     atom                  positions (alat units)
         1        Se     tau(   1) = (  -0.0000005   0.5773506   6.1238532  )
         2        Mo     tau(   2) = (   0.0000000   0.0000000   6.6502752  )
         3        Se     tau(   3) = (   0.5000005   0.2886748   7.1775994  )
         4        Se     tau(   4) = (  -0.0000005   0.5773506   9.0297706  )
         5        Mo     tau(   5) = (   0.5000005   0.2886748   9.5569572  )
         6        Se     tau(   6) = (   0.0000000   0.0000000  10.0840979  )

     number of k points=    30  Methfessel-Paxton smearing, width (Ry)=  0.0200
                       cart. coord. in units 2pi/alat
        k(    1) = (   0.0000000   0.0000000   0.0000000), wk =   0.0078125
        k(    2) = (   0.0000000   0.0721688   0.0000000), wk =   0.0468750
        k(    3) = (   0.0000000   0.1443376   0.0000000), wk =   0.0468750
        k(    4) = (   0.0000000   0.2165064   0.0000000), wk =   0.0468750
        k(    5) = (   0.0000000   0.2886751   0.0000000), wk =   0.0468750
        k(    6) = (   0.0000000   0.3608439   0.0000000), wk =   0.0468750
        k(    7) = (   0.0000000   0.4330127   0.0000000), wk =   0.0468750
        k(    8) = (   0.0000000   0.5051815   0.0000000), wk =   0.0468750
        k(    9) = (   0.0000000  -0.5773503   0.0000000), wk =   0.0234375
        k(   10) = (   0.0625000   0.1082532   0.0000000), wk =   0.0468750
        k(   11) = (   0.0625000   0.1804220   0.0000000), wk =   0.0937500
        k(   12) = (   0.0625000   0.2525907   0.0000000), wk =   0.0937500
        k(   13) = (   0.0625000   0.3247595   0.0000000), wk =   0.0937500
        k(   14) = (   0.0625000   0.3969283   0.0000000), wk =   0.0937500
        k(   15) = (   0.0625000   0.4690971   0.0000000), wk =   0.0937500
        k(   16) = (   0.0625000   0.5412659   0.0000000), wk =   0.0937500
        k(   17) = (   0.1250000   0.2165064   0.0000000), wk =   0.0468750
        k(   18) = (   0.1250000   0.2886751   0.0000000), wk =   0.0937500
        k(   19) = (   0.1250000   0.3608439   0.0000000), wk =   0.0937500
        k(   20) = (   0.1250000   0.4330127   0.0000000), wk =   0.0937500
        k(   21) = (   0.1250000   0.5051815   0.0000000), wk =   0.0937500
        k(   22) = (   0.1250000   0.5773503   0.0000000), wk =   0.0468750
        k(   23) = (   0.1875000   0.3247595   0.0000000), wk =   0.0468750
        k(   24) = (   0.1875000   0.3969283   0.0000000), wk =   0.0937500
        k(   25) = (   0.1875000   0.4690971   0.0000000), wk =   0.0937500
        k(   26) = (   0.1875000   0.5412659   0.0000000), wk =   0.0937500
        k(   27) = (   0.2500000   0.4330127   0.0000000), wk =   0.0468750
        k(   28) = (   0.2500000   0.5051815   0.0000000), wk =   0.0937500
        k(   29) = (   0.2500000   0.5773503   0.0000000), wk =   0.0468750
        k(   30) = (   0.3125000   0.5412659   0.0000000), wk =   0.0468750

     Dense  grid:   853823 G-vectors     FFT dimensions: (  50,  50, 768)

     Smooth grid:   302525 G-vectors     FFT dimensions: (  36,  36, 540)

     Estimated max dynamical RAM per process >     171.88 MB

     Estimated total dynamical RAM >       4.03 GB

     Initial potential from superposition of free atoms

     starting charge      91.9979, renormalised to      92.0000

     negative rho (up, down):  1.720E-04 0.000E+00


     %%%%%%%%%%%%%%%%%%%%%%%%%%%%%%%%%%%%%%%%%%%%%%%%%%%%%%%%%%%%%%%%%%%%%%%%
     %                                                                      %
     % You are using vdW-DF, which was implemented by the Thonhauser group. %
     % Please cite the following two papers that made this development      %
     % possible and the two reviews that describe the various versions:     %
     %                                                                      %
     %   T. Thonhauser et al., PRL 115, 136402 (2015).                      %
     %   T. Thonhauser et al., PRB 76, 125112 (2007).                       %
     %   K. Berland et al., Rep. Prog. Phys. 78, 066501 (2015).             %
     %   D.C. Langreth et al., J. Phys.: Condens. Matter 21, 084203 (2009). %
     %                                                                      %
     % If you are calculating stress with vdW-DF, please also cite:         %
     %                                                                      %
     %   R. Sabatini et al., J. Phys.: Condens. Matter 24, 424209 (2012).   %
     %                                                                      %
     %%%%%%%%%%%%%%%%%%%%%%%%%%%%%%%%%%%%%%%%%%%%%%%%%%%%%%%%%%%%%%%%%%%%%%%%

     %%%%%%%%%%%%%%%%%%%%%%%%%%%%%%%%%%%%%%%%%%%%%%%%%%%%%%%%%%%%%%%%%%%%%%%%
     %                                                                      %
     %  vdW-DF NEWS:                                                        %
     %                                                                      %
     %  * vdW-DF3 is now available. DOI: 10.1021/acs.jctc.0c00471           %
     %    use with input_dft = 'vdW-DF3-opt1' or 'vdW-DF3-opt2'             %
     %                                                                      %
     %  * Unscreened and range-separated hybrid vdW-DF-cx functionals       %
     %    DOI: 10.1063/1.4986522 and 10.1088/1361-648X/ac2ad2               %
     %    use with input_dft = 'vdW-DF-cx0'    and 'vdW-DF-ahcx'            %
     %  * Unscreened and range-separated hybrid vdW-DF2-b86r functionals    %
     %    DOI: 10.1063/1.4986522 and DOI: 10.1103/PhysRevX.12.041003        %
     %    use with input_dft = 'vdW-DF2-br0' and 'vdW-DF2-ahbr'             %
     %                                                                      %
     %%%%%%%%%%%%%%%%%%%%%%%%%%%%%%%%%%%%%%%%%%%%%%%%%%%%%%%%%%%%%%%%%%%%%%%%


     Starting wfcs are   56 randomized atomic wfcs
     Checking if some PAW data can be deallocated... 

     total cpu time spent up to now is       12.1 secs

     per-process dynamical memory:    79.7 Mb

     Self-consistent Calculation

     iteration #  1     ecut=    80.00 Ry     beta= 0.30
     Davidson diagonalization with overlap
     ethr =  1.00E-02,  avg # of iterations =  4.4

     Threshold (ethr) on eigenvalues was too large:
     Diagonalizing with lowered threshold

     Davidson diagonalization with overlap
     ethr =  4.47E-04,  avg # of iterations =  2.3

     negative rho (up, down):  9.851E-05 0.000E+00

     total cpu time spent up to now is       50.5 secs

     total energy              =   -2326.96440608 Ry
     estimated scf accuracy    <       0.45916355 Ry

     iteration #  2     ecut=    80.00 Ry     beta= 0.30
     Davidson diagonalization with overlap
     ethr =  4.99E-04,  avg # of iterations =  1.0

     negative rho (up, down):  7.954E-05 0.000E+00

     total cpu time spent up to now is       66.1 secs

     total energy              =   -2326.91738219 Ry
     estimated scf accuracy    <       0.24348448 Ry

     iteration #  3     ecut=    80.00 Ry     beta= 0.30
     Davidson diagonalization with overlap
     ethr =  2.65E-04,  avg # of iterations =  2.7

     negative rho (up, down):  1.503E-05 0.000E+00

     total cpu time spent up to now is       84.7 secs

     total energy              =   -2326.92450421 Ry
     estimated scf accuracy    <       0.03100294 Ry

     iteration #  4     ecut=    80.00 Ry     beta= 0.30
     Davidson diagonalization with overlap
     c_bands:  1 eigenvalues not converged
     ethr =  3.37E-05,  avg # of iterations =  8.5

     negative rho (up, down):  5.558E-06 0.000E+00

     total cpu time spent up to now is      107.2 secs

     total energy              =   -2326.92457883 Ry
     estimated scf accuracy    <       0.00943803 Ry

     iteration #  5     ecut=    80.00 Ry     beta= 0.30
     Davidson diagonalization with overlap
     c_bands:  1 eigenvalues not converged
     ethr =  1.03E-05,  avg # of iterations =  4.8

     negative rho (up, down):  5.801E-07 0.000E+00

     total cpu time spent up to now is      128.2 secs

     total energy              =   -2326.92398174 Ry
     estimated scf accuracy    <       0.00360914 Ry

     iteration #  6     ecut=    80.00 Ry     beta= 0.30
     Davidson diagonalization with overlap
     ethr =  3.92E-06,  avg # of iterations =  9.0

     negative rho (up, down):  3.211E-07 0.000E+00

     total cpu time spent up to now is      151.2 secs

     total energy              =   -2326.92404413 Ry
     estimated scf accuracy    <       0.00137487 Ry

     iteration #  7     ecut=    80.00 Ry     beta= 0.30
     Davidson diagonalization with overlap
     ethr =  1.49E-06,  avg # of iterations =  3.5

     negative rho (up, down):  3.723E-07 0.000E+00

     total cpu time spent up to now is      169.6 secs

     total energy              =   -2326.92393779 Ry
     estimated scf accuracy    <       0.00129072 Ry

     iteration #  8     ecut=    80.00 Ry     beta= 0.30
     Davidson diagonalization with overlap
     ethr =  1.40E-06,  avg # of iterations =  7.2

     negative rho (up, down):  1.602E-07 0.000E+00

     total cpu time spent up to now is      189.0 secs

     total energy              =   -2326.92389765 Ry
     estimated scf accuracy    <       0.00107905 Ry

     iteration #  9     ecut=    80.00 Ry     beta= 0.30
     Davidson diagonalization with overlap
     ethr =  1.17E-06,  avg # of iterations =  1.1

     negative rho (up, down):  5.905E-03 0.000E+00

     total cpu time spent up to now is      204.7 secs

     total energy              =   -2326.92376626 Ry
     estimated scf accuracy    <       0.00083461 Ry

     iteration # 10     ecut=    80.00 Ry     beta= 0.30
     Davidson diagonalization with overlap
     ethr =  9.07E-07,  avg # of iterations =  6.8

     negative rho (up, down):  6.139E-03 0.000E+00

     total cpu time spent up to now is      224.5 secs

     total energy              =   -2326.92367094 Ry
     estimated scf accuracy    <       0.00052395 Ry

     iteration # 11     ecut=    80.00 Ry     beta= 0.30
     Davidson diagonalization with overlap
     ethr =  5.70E-07,  avg # of iterations =  1.7

     negative rho (up, down):  5.627E-03 0.000E+00

     total cpu time spent up to now is      242.1 secs

     total energy              =   -2326.92370434 Ry
     estimated scf accuracy    <       0.00031660 Ry

     iteration # 12     ecut=    80.00 Ry     beta= 0.30
     Davidson diagonalization with overlap
     ethr =  3.44E-07,  avg # of iterations =  4.3

     negative rho (up, down):  4.026E-03 0.000E+00

     total cpu time spent up to now is      260.6 secs

     total energy              =   -2326.92372274 Ry
     estimated scf accuracy    <       0.00020872 Ry

     iteration # 13     ecut=    80.00 Ry     beta= 0.30
     Davidson diagonalization with overlap
     ethr =  2.27E-07,  avg # of iterations =  1.5

     negative rho (up, down):  1.999E-03 0.000E+00

     total cpu time spent up to now is      277.6 secs

     total energy              =   -2326.92367702 Ry
     estimated scf accuracy    <       0.00017559 Ry

     iteration # 14     ecut=    80.00 Ry     beta= 0.30
     Davidson diagonalization with overlap
     ethr =  1.91E-07,  avg # of iterations =  2.8

     negative rho (up, down):  2.720E-03 0.000E+00

     total cpu time spent up to now is      294.9 secs

     total energy              =   -2326.92364610 Ry
     estimated scf accuracy    <       0.00010411 Ry

     iteration # 15     ecut=    80.00 Ry     beta= 0.30
     Davidson diagonalization with overlap
     ethr =  1.13E-07,  avg # of iterations =  1.0

     negative rho (up, down):  2.511E-03 0.000E+00

     total cpu time spent up to now is      310.3 secs

     total energy              =   -2326.92368482 Ry
     estimated scf accuracy    <       0.00007275 Ry

     iteration # 16     ecut=    80.00 Ry     beta= 0.30
     Davidson diagonalization with overlap
     ethr =  7.91E-08,  avg # of iterations =  2.0

     negative rho (up, down):  2.250E-03 0.000E+00

     total cpu time spent up to now is      329.0 secs

     total energy              =   -2326.92369737 Ry
     estimated scf accuracy    <       0.00002264 Ry

     iteration # 17     ecut=    80.00 Ry     beta= 0.30
     Davidson diagonalization with overlap
     ethr =  2.46E-08,  avg # of iterations =  1.4

     negative rho (up, down):  1.264E-03 0.000E+00

     total cpu time spent up to now is      345.5 secs

     total energy              =   -2326.92370909 Ry
     estimated scf accuracy    <       0.00001390 Ry

     iteration # 18     ecut=    80.00 Ry     beta= 0.30
     Davidson diagonalization with overlap
     ethr =  1.51E-08,  avg # of iterations =  2.0

     negative rho (up, down):  9.128E-04 0.000E+00

     total cpu time spent up to now is      363.7 secs

     total energy              =   -2326.92371206 Ry
     estimated scf accuracy    <       0.00000501 Ry

     iteration # 19     ecut=    80.00 Ry     beta= 0.30
     Davidson diagonalization with overlap
     ethr =  5.44E-09,  avg # of iterations =  1.3

     negative rho (up, down):  3.602E-04 0.000E+00

     total cpu time spent up to now is      380.1 secs

     total energy              =   -2326.92371315 Ry
     estimated scf accuracy    <       0.00000311 Ry

     iteration # 20     ecut=    80.00 Ry     beta= 0.30
     Davidson diagonalization with overlap
     ethr =  3.38E-09,  avg # of iterations =  4.0

     negative rho (up, down):  2.776E-04 0.000E+00

     total cpu time spent up to now is      401.2 secs

     total energy              =   -2326.92371226 Ry
     estimated scf accuracy    <       0.00000025 Ry

     iteration # 21     ecut=    80.00 Ry     beta= 0.30
     Davidson diagonalization with overlap
     ethr =  2.74E-10,  avg # of iterations =  2.6

     negative rho (up, down):  2.598E-04 0.000E+00

     total cpu time spent up to now is      420.4 secs

     total energy              =   -2326.92371195 Ry
     estimated scf accuracy    <       0.00000009 Ry

     iteration # 22     ecut=    80.00 Ry     beta= 0.30
     Davidson diagonalization with overlap
     ethr =  9.73E-11,  avg # of iterations =  2.0

     negative rho (up, down):  2.200E-04 0.000E+00

     total cpu time spent up to now is      440.4 secs

     total energy              =   -2326.92371249 Ry
     estimated scf accuracy    <       0.00000003 Ry

     iteration # 23     ecut=    80.00 Ry     beta= 0.30
     Davidson diagonalization with overlap
     ethr =  3.16E-11,  avg # of iterations =  2.4

     negative rho (up, down):  2.032E-04 0.000E+00

     total cpu time spent up to now is      459.7 secs

     End of self-consistent calculation

          k = 0.0000 0.0000 0.0000 ( 37787 PWs)   bands (ev):

   -61.8993 -61.8984 -48.2957 -48.2957 -48.2940 -48.2940 -48.2939 -48.2939
   -48.2925 -48.2925 -48.2504 -48.2504 -48.2488 -48.2488 -48.2483 -48.2483
   -48.2470 -48.2470 -48.2318 -48.2302 -48.2296 -48.2283 -36.0178 -36.0167
   -35.9024 -35.9024 -35.9011 -35.9011 -15.2967 -15.2932 -14.4784 -14.4767
    -6.4436  -6.4333  -3.3676  -3.3637  -3.3637  -3.3576  -3.3576  -3.3144
    -1.6181  -1.5709  -1.0674  -1.0674  -1.0645  -1.0645   0.2267   0.2267
     0.2295   0.2295   2.9193   2.9453   2.9453   2.9474   2.9475

          k = 0.0000 0.0722 0.0000 ( 37755 PWs)   bands (ev):

   -61.8984 -61.8975 -48.2957 -48.2955 -48.2940 -48.2939 -48.2938 -48.2937
   -48.2924 -48.2923 -48.2504 -48.2504 -48.2488 -48.2488 -48.2484 -48.2484
   -48.2470 -48.2470 -48.2317 -48.2301 -48.2295 -48.2282 -36.0155 -36.0145
   -35.9130 -35.9117 -35.9048 -35.9035 -15.2399 -15.2364 -14.4489 -14.4472
    -6.3658  -6.3556  -3.8445  -3.8253  -3.3317  -3.3256  -2.9528  -2.9196
    -1.6512  -1.6135  -1.2587  -1.2528  -1.2143  -1.2112   0.1131   0.1251
     0.3397   0.3422   2.5942   2.6354   2.8967   2.8987   3.0659

          k = 0.0000 0.1443 0.0000 ( 37697 PWs)   bands (ev):

   -61.8956 -61.8947 -48.2956 -48.2949 -48.2940 -48.2939 -48.2933 -48.2932
   -48.2924 -48.2917 -48.2506 -48.2505 -48.2490 -48.2489 -48.2486 -48.2484
   -48.2472 -48.2471 -48.2314 -48.2298 -48.2292 -48.2279 -36.0091 -36.0081
   -35.9431 -35.9418 -35.9118 -35.9105 -15.0736 -15.0701 -14.3627 -14.3609
    -6.1406  -6.1303  -4.3270  -4.3131  -3.2563  -3.2503  -2.7313  -2.7026
    -2.0841  -2.0743  -1.5018  -1.4983  -1.4744  -1.4449  -0.0144   0.0123
     0.5302   0.5320   1.9921   2.0536   2.7969   2.7988   3.3476

          k = 0.0000 0.2165 0.0000 ( 37653 PWs)   bands (ev):

   -61.8915 -61.8906 -48.2956 -48.2941 -48.2940 -48.2938 -48.2925 -48.2924
   -48.2924 -48.2909 -48.2509 -48.2506 -48.2493 -48.2490 -48.2488 -48.2485
   -48.2474 -48.2471 -48.2310 -48.2294 -48.2288 -48.2275 -35.9999 -35.9989
   -35.9876 -35.9863 -35.9221 -35.9208 -14.8106 -14.8073 -14.2264 -14.2244
    -5.7998  -5.7897  -4.7542  -4.7440  -3.2609  -3.2570  -3.2047  -3.1987
    -2.4509  -2.4248  -1.7254  -1.7217  -1.5704  -1.5498  -0.0496  -0.0162
     0.6365   0.6378   1.6158   1.7053   2.7314   2.7332   3.7243

          k = 0.0000 0.2887 0.0000 ( 37721 PWs)   bands (ev):

   -61.8866 -61.8858 -48.2956 -48.2940 -48.2938 -48.2932 -48.2924 -48.2916
   -48.2915 -48.2900 -48.2512 -48.2507 -48.2496 -48.2491 -48.2490 -48.2486
   -48.2477 -48.2472 -48.2306 -48.2290 -48.2284 -48.2271 -36.0407 -36.0393
   -35.9880 -35.9870 -35.9343 -35.9330 -14.4774 -14.4741 -14.0485 -14.0463
    -5.4873  -5.4788  -4.9933  -4.9848  -4.2824  -4.2790  -3.2590  -3.2534
    -2.6317  -2.6138  -1.8177  -1.8073  -1.7689  -1.7649   0.0307   0.0656
     0.6415   0.6426   1.7081   1.8236   2.7325   2.7345   4.1793

          k = 0.0000 0.3608 0.0000 ( 37749 PWs)   bands (ev):

   -61.8818 -61.8809 -48.2956 -48.2939 -48.2938 -48.2923 -48.2923 -48.2907
   -48.2906 -48.2891 -48.2516 -48.2508 -48.2500 -48.2493 -48.2492 -48.2487
   -48.2479 -48.2473 -48.2301 -48.2285 -48.2279 -48.2267 -36.0926 -36.0912
   -35.9767 -35.9757 -35.9465 -35.9452 -14.1291 -14.1258 -13.8291 -13.8266
    -5.6022  -5.5969  -5.2398  -5.2364  -4.7292  -4.7210  -3.4075  -3.4021
    -2.9874  -2.9773  -2.0813  -2.0739  -1.6635  -1.6596   0.2931   0.3228
     0.6182   0.6195   2.1207   2.2471   2.7690   2.7713   4.6788

          k = 0.0000 0.4330 0.0000 ( 37785 PWs)   bands (ev):

   -61.8777 -61.8768 -48.2956 -48.2940 -48.2938 -48.2923 -48.2916 -48.2899
   -48.2898 -48.2884 -48.2519 -48.2509 -48.2503 -48.2495 -48.2493 -48.2488
   -48.2481 -48.2474 -48.2298 -48.2282 -48.2276 -48.2263 -36.1364 -36.1349
   -35.9670 -35.9661 -35.9568 -35.9555 -13.8652 -13.8618 -13.5502 -13.5476
    -6.2021  -6.1982  -5.5802  -5.5757  -4.5377  -4.5331  -3.5667  -3.5614
    -3.2407  -3.2321  -2.2533  -2.2484  -1.5297  -1.5260   0.6326   0.6343
     0.6632   0.6837   2.6433   2.7568   2.8055   2.8081   4.9848

          k = 0.0000 0.5052 0.0000 ( 37822 PWs)   bands (ev):

   -61.8749 -61.8740 -48.2956 -48.2940 -48.2937 -48.2923 -48.2911 -48.2894
   -48.2893 -48.2879 -48.2521 -48.2510 -48.2505 -48.2496 -48.2494 -48.2488
   -48.2482 -48.2475 -48.2295 -48.2279 -48.2273 -48.2260 -36.1654 -36.1640
   -35.9636 -35.9623 -35.9606 -35.9596 -13.7200 -13.7164 -13.2883 -13.2858
    -6.7596  -6.7558  -5.6011  -5.5979  -4.7040  -4.7010  -3.6788  -3.6735
    -3.1196  -3.1122  -2.3803  -2.3775  -1.4423  -1.4390   0.6816   0.6838
     1.0099   1.0207   2.8280   2.8308   3.1137   3.1852   4.6215

          k = 0.0000-0.5774 0.0000 ( 37832 PWs)   bands (ev):

   -61.8739 -61.8731 -48.2956 -48.2940 -48.2937 -48.2923 -48.2909 -48.2893
   -48.2891 -48.2877 -48.2521 -48.2510 -48.2506 -48.2496 -48.2494 -48.2488
   -48.2482 -48.2475 -48.2294 -48.2278 -48.2272 -48.2259 -36.1756 -36.1741
   -35.9661 -35.9647 -35.9583 -35.9574 -13.6725 -13.6689 -13.1817 -13.1792
    -6.9648  -6.9610  -5.5712  -5.5690  -4.8468  -4.8436  -3.7184  -3.7132
    -2.9898  -2.9844  -2.4484  -2.4464  -1.4145  -1.4114   0.7091   0.7115
     1.1602   1.1646   2.8353   2.8382   3.3555   3.3875   4.3044

          k = 0.0625 0.1083 0.0000 ( 37709 PWs)   bands (ev):

   -61.8965 -61.8956 -48.2956 -48.2951 -48.2940 -48.2939 -48.2935 -48.2934
   -48.2924 -48.2919 -48.2505 -48.2504 -48.2490 -48.2488 -48.2485 -48.2484
   -48.2471 -48.2470 -48.2315 -48.2299 -48.2293 -48.2280 -36.0112 -36.0102
   -35.9331 -35.9318 -35.9098 -35.9085 -15.1283 -15.1248 -14.3911 -14.3893
    -6.2139  -6.2036  -4.1989  -4.1837  -3.2852  -3.2791  -2.7538  -2.7212
    -1.8842  -1.8735  -1.5033  -1.4979  -1.3961  -1.3716   0.0482   0.0714
     0.4299   0.4319   2.2222   2.2780   2.7504   2.7553   3.2678

          k = 0.0625 0.1804 0.0000 ( 37703 PWs)   bands (ev):

   -61.8931 -61.8922 -48.2956 -48.2945 -48.2939 -48.2938 -48.2928 -48.2927
   -48.2924 -48.2913 -48.2508 -48.2505 -48.2492 -48.2489 -48.2487 -48.2485
   -48.2473 -48.2471 -48.2312 -48.2296 -48.2290 -48.2277 -36.0033 -36.0022
   -35.9697 -35.9684 -35.9193 -35.9180 -14.9132 -14.9098 -14.2800 -14.2781
    -5.9259  -5.9157  -4.6103  -4.5989  -3.2795  -3.2736  -2.8199  -2.8062
    -2.4613  -2.4495  -1.7604  -1.7504  -1.4288  -1.4033   0.0438   0.0730
     0.4282   0.4333   1.8931   1.9675   2.5760   2.5820   3.5903

          k = 0.0625 0.2526 0.0000 ( 37702 PWs)   bands (ev):

   -61.8886 -61.8877 -48.2955 -48.2939 -48.2938 -48.2937 -48.2923 -48.2920
   -48.2919 -48.2905 -48.2511 -48.2506 -48.2495 -48.2490 -48.2489 -48.2486
   -48.2475 -48.2472 -48.2308 -48.2292 -48.2286 -48.2273 -36.0174 -36.0161
   -35.9926 -35.9916 -35.9317 -35.9304 -14.6131 -14.6098 -14.1239 -14.1218
    -5.5580  -5.5483  -4.9530  -4.9442  -3.8382  -3.8345  -3.2254  -3.2202
    -2.6083  -2.5946  -1.9694  -1.9612  -1.4544  -1.4391  -0.0195   0.0082
     0.5021   0.5173   1.7798   1.8654   2.5407   2.5582   4.0034

          k = 0.0625 0.3248 0.0000 ( 37734 PWs)   bands (ev):

   -61.8837 -61.8829 -48.2955 -48.2939 -48.2937 -48.2928 -48.2923 -48.2911
   -48.2910 -48.2896 -48.2514 -48.2508 -48.2498 -48.2492 -48.2492 -48.2487
   -48.2478 -48.2473 -48.2303 -48.2287 -48.2281 -48.2268 -36.0684 -36.0670
   -35.9814 -35.9804 -35.9451 -35.9438 -14.2647 -14.2615 -13.9304 -13.9280
    -5.4491  -5.4424  -4.9285  -4.9216  -4.7829  -4.7785  -3.4647  -3.4599
    -2.7315  -2.7219  -2.2821  -2.2785  -1.4399  -1.4316   0.0324   0.0578
     0.6524   0.6643   1.9154   2.0018   2.6227   2.6602   4.4879

          k = 0.0625 0.3969 0.0000 ( 37770 PWs)   bands (ev):

   -61.8792 -61.8784 -48.2955 -48.2938 -48.2937 -48.2922 -48.2920 -48.2903
   -48.2902 -48.2888 -48.2517 -48.2509 -48.2501 -48.2494 -48.2493 -48.2488
   -48.2480 -48.2474 -48.2299 -48.2283 -48.2277 -48.2264 -36.1151 -36.1137
   -35.9709 -35.9699 -35.9574 -35.9560 -13.9485 -13.9453 -13.6862 -13.6836
    -5.8179  -5.8138  -5.4841  -5.4795  -4.5629  -4.5562  -3.7097  -3.7051
    -2.9935  -2.9875  -2.5002  -2.4968  -1.3697  -1.3650   0.2343   0.2509
     0.8107   0.8201   2.2191   2.2750   2.7785   2.8456   4.9642

          k = 0.0625 0.4691 0.0000 ( 37798 PWs)   bands (ev):

   -61.8758 -61.8749 -48.2955 -48.2938 -48.2936 -48.2922 -48.2914 -48.2897
   -48.2896 -48.2881 -48.2520 -48.2510 -48.2504 -48.2495 -48.2494 -48.2488
   -48.2481 -48.2475 -48.2296 -48.2280 -48.2274 -48.2261 -36.1506 -36.1492
   -35.9672 -35.9659 -35.9625 -35.9615 -13.7511 -13.7476 -13.4006 -13.3980
    -6.4728  -6.4690  -5.5903  -5.5864  -4.5557  -4.5524  -3.8035  -3.7987
    -3.1083  -3.1022  -2.6052  -2.6026  -1.3286  -1.3257   0.4814   0.4889
     0.9935   1.0016   2.4679   2.4839   3.0293   3.1046   5.0213

          k = 0.0625 0.5413 0.0000 ( 37791 PWs)   bands (ev):

   -61.8739 -61.8731 -48.2955 -48.2938 -48.2936 -48.2921 -48.2910 -48.2894
   -48.2893 -48.2878 -48.2521 -48.2510 -48.2505 -48.2496 -48.2494 -48.2489
   -48.2482 -48.2475 -48.2294 -48.2278 -48.2272 -48.2259 -36.1698 -36.1683
   -35.9721 -35.9707 -35.9583 -35.9574 -13.6579 -13.6543 -13.2054 -13.2029
    -6.8597  -6.8559  -5.5723  -5.5698  -4.7654  -4.7622  -3.8210  -3.8162
    -2.9945  -2.9894  -2.6772  -2.6754  -1.3294  -1.3271   0.6644   0.6672
     1.1248   1.1297   2.5731   2.5764   3.2909   3.3316   4.5903

          k = 0.1250 0.2165 0.0000 ( 37731 PWs)   bands (ev):

   -61.8893 -61.8884 -48.2955 -48.2939 -48.2939 -48.2937 -48.2923 -48.2922
   -48.2921 -48.2907 -48.2510 -48.2506 -48.2494 -48.2490 -48.2489 -48.2486
   -48.2475 -48.2472 -48.2308 -48.2293 -48.2286 -48.2273 -36.0076 -36.0062
   -35.9944 -35.9934 -35.9323 -35.9309 -14.6596 -14.6563 -14.1498 -14.1477
    -5.5889  -5.5789  -4.9207  -4.9117  -3.6966  -3.6921  -3.0165  -3.0058
    -2.8665  -2.8623  -1.9406  -1.9262  -1.3368  -1.3149   0.0434   0.0561
     0.2940   0.3256   2.1048   2.1812   2.1828   2.2064   3.9486

          k = 0.1250 0.2887 0.0000 ( 37723 PWs)   bands (ev):

   -61.8848 -61.8839 -48.2954 -48.2937 -48.2936 -48.2931 -48.2921 -48.2915
   -48.2914 -48.2899 -48.2513 -48.2507 -48.2497 -48.2491 -48.2491 -48.2487
   -48.2477 -48.2473 -48.2304 -48.2288 -48.2282 -48.2269 -36.0511 -36.0497
   -35.9841 -35.9831 -35.9482 -35.9469 -14.3372 -14.3340 -13.9826 -13.9802
    -5.2737  -5.2659  -5.0850  -5.0764  -4.4644  -4.4606  -3.4654  -3.4602
    -2.9563  -2.9523  -2.2048  -2.1971  -1.2069  -1.1909  -0.1732  -0.1533
     0.5897   0.6154   1.8606   1.8787   2.4160   2.5160   4.3944

          k = 0.1250 0.3608 0.0000 ( 37761 PWs)   bands (ev):

   -61.8803 -61.8794 -48.2952 -48.2936 -48.2934 -48.2924 -48.2920 -48.2907
   -48.2906 -48.2892 -48.2516 -48.2509 -48.2500 -48.2493 -48.2493 -48.2488
   -48.2479 -48.2474 -48.2300 -48.2284 -48.2278 -48.2265 -36.0940 -36.0926
   -35.9743 -35.9733 -35.9640 -35.9627 -13.9970 -13.9938 -13.7817 -13.7790
    -5.4752  -5.4699  -5.2643  -5.2607  -4.6708  -4.6625  -3.8527  -3.8485
    -3.0555  -3.0522  -2.6327  -2.6292  -1.0726  -1.0624  -0.1372  -0.1186
     0.8782   0.8932   1.7775   1.7982   2.7236   2.8265   4.8928

          k = 0.1250 0.4330 0.0000 ( 37768 PWs)   bands (ev):

   -61.8765 -61.8756 -48.2951 -48.2935 -48.2933 -48.2918 -48.2918 -48.2901
   -48.2900 -48.2886 -48.2519 -48.2510 -48.2503 -48.2495 -48.2494 -48.2489
   -48.2481 -48.2475 -48.2297 -48.2281 -48.2275 -48.2262 -36.1300 -36.1286
   -35.9793 -35.9780 -35.9640 -35.9630 -13.7471 -13.7437 -13.5185 -13.5158
    -6.0643  -6.0605  -5.5238  -5.5194  -4.3982  -4.3937  -4.0800  -4.0752
    -3.1669  -3.1642  -2.9811  -2.9777  -1.0378  -1.0323   0.1093   0.1226
     1.0734   1.0800   1.8896   1.9067   3.0143   3.0976   5.2676

          k = 0.1250 0.5052 0.0000 ( 37794 PWs)   bands (ev):

   -61.8739 -61.8731 -48.2951 -48.2935 -48.2932 -48.2918 -48.2914 -48.2897
   -48.2896 -48.2882 -48.2520 -48.2511 -48.2504 -48.2496 -48.2495 -48.2489
   -48.2482 -48.2476 -48.2294 -48.2278 -48.2272 -48.2259 -36.1539 -36.1525
   -35.9884 -35.9870 -35.9584 -35.9574 -13.6152 -13.6117 -13.2695 -13.2669
    -6.5675  -6.5638  -5.5567  -5.5534  -4.5701  -4.5670  -4.0314  -4.0271
    -3.2482  -3.2458  -3.0452  -3.0412  -1.0937  -1.0908   0.4507   0.4580
     1.1246   1.1278   2.0607   2.0705   3.2227   3.2684   5.1500

          k = 0.1250 0.5774 0.0000 ( 37780 PWs)   bands (ev):

   -61.8730 -61.8722 -48.2951 -48.2934 -48.2932 -48.2917 -48.2912 -48.2896
   -48.2894 -48.2880 -48.2521 -48.2511 -48.2505 -48.2496 -48.2495 -48.2489
   -48.2482 -48.2476 -48.2293 -48.2277 -48.2271 -48.2258 -36.1623 -36.1609
   -35.9916 -35.9903 -35.9563 -35.9553 -13.5715 -13.5679 -13.1702 -13.1676
    -6.7511  -6.7473  -5.5485  -5.5459  -4.6847  -4.6815  -4.0277  -4.0236
    -3.2773  -3.2751  -2.9993  -2.9960  -1.1325  -1.1301   0.6553   0.6575
     1.0761   1.0791   2.1478   2.1504   3.2987   3.3239   4.9564

          k = 0.1875 0.3248 0.0000 ( 37725 PWs)   bands (ev):

   -61.8807 -61.8798 -48.2951 -48.2935 -48.2933 -48.2926 -48.2918 -48.2909
   -48.2908 -48.2894 -48.2516 -48.2509 -48.2500 -48.2493 -48.2492 -48.2488
   -48.2479 -48.2475 -48.2300 -48.2285 -48.2278 -48.2266 -36.0845 -36.0831
   -35.9764 -35.9753 -35.9675 -35.9663 -14.0124 -14.0092 -13.8163 -13.8137
    -5.3432  -5.3372  -5.0957  -5.0919  -4.7599  -4.7514  -3.8560  -3.8518
    -3.3363  -3.3323  -2.5132  -2.5101  -0.9065  -0.8924  -0.3166  -0.2984
     0.8739   0.8934   1.5980   1.6058   2.7067   2.8195   4.8618

          k = 0.1875 0.3969 0.0000 ( 37753 PWs)   bands (ev):

   -61.8769 -61.8760 -48.2948 -48.2932 -48.2930 -48.2921 -48.2915 -48.2905
   -48.2904 -48.2889 -48.2518 -48.2510 -48.2502 -48.2494 -48.2494 -48.2489
   -48.2480 -48.2476 -48.2297 -48.2281 -48.2275 -48.2262 -36.1132 -36.1118
   -35.9916 -35.9902 -35.9649 -35.9639 -13.7094 -13.7062 -13.6189 -13.6161
    -5.6954  -5.6916  -5.4465  -5.4417  -4.3586  -4.3515  -4.2075  -4.2039
    -3.6619  -3.6584  -2.9111  -2.9096  -0.6973  -0.6884  -0.2463  -0.2323
     1.1007   1.1107   1.5143   1.5274   3.0139   3.1018   5.3319

          k = 0.1875 0.4691 0.0000 ( 37759 PWs)   bands (ev):

   -61.8739 -61.8731 -48.2946 -48.2930 -48.2928 -48.2918 -48.2913 -48.2901
   -48.2900 -48.2886 -48.2519 -48.2511 -48.2503 -48.2496 -48.2496 -48.2490
   -48.2482 -48.2476 -48.2294 -48.2278 -48.2272 -48.2259 -36.1341 -36.1327
   -36.0087 -36.0073 -35.9584 -35.9574 -13.5490 -13.5457 -13.3566 -13.3538
    -6.1796  -6.1759  -5.5135  -5.5096  -4.4292  -4.4257  -4.1211  -4.1166
    -3.8873  -3.8845  -3.1812  -3.1792  -0.7466  -0.7419   0.0986   0.1072
     1.1447   1.1481   1.6640   1.6794   3.2029   3.2480   5.5285

          k = 0.1875 0.5413 0.0000 ( 37793 PWs)   bands (ev):

   -61.8724 -61.8715 -48.2945 -48.2929 -48.2926 -48.2916 -48.2912 -48.2900
   -48.2899 -48.2884 -48.2520 -48.2512 -48.2504 -48.2497 -48.2496 -48.2490
   -48.2483 -48.2476 -48.2293 -48.2277 -48.2271 -48.2258 -36.1451 -36.1436
   -36.0183 -36.0169 -35.9548 -35.9538 -13.4714 -13.4679 -13.1871 -13.1843
    -6.4569  -6.4533  -5.5418  -5.5386  -4.5227  -4.5193  -4.1633  -4.1599
    -3.9618  -3.9596  -3.2024  -3.2000  -0.8336  -0.8307   0.4683   0.4717
     0.9981   1.0001   1.8782   1.8875   3.2136   3.2324   5.5135

          k = 0.2500 0.4330 0.0000 ( 37711 PWs)   bands (ev):

   -61.8739 -61.8731 -48.2943 -48.2927 -48.2925 -48.2920 -48.2911 -48.2903
   -48.2902 -48.2888 -48.2519 -48.2512 -48.2503 -48.2496 -48.2496 -48.2490
   -48.2482 -48.2476 -48.2294 -48.2278 -48.2272 -48.2259 -36.1237 -36.1223
   -36.0193 -36.0179 -35.9584 -35.9574 -13.4872 -13.4839 -13.4269 -13.4240
    -5.9591  -5.9554  -5.4820  -5.4778  -4.4109  -4.4075  -4.2506  -4.2474
    -4.0471  -4.0417  -3.2768  -3.2754  -0.3391  -0.3294  -0.3137  -0.3099
     1.1389   1.1443   1.5383   1.5550   3.2022   3.2462   5.6782

          k = 0.2500 0.5052 0.0000 ( 37776 PWs)   bands (ev):

   -61.8720 -61.8711 -48.2940 -48.2923 -48.2922 -48.2919 -48.2907 -48.2903
   -48.2903 -48.2888 -48.2519 -48.2513 -48.2503 -48.2497 -48.2497 -48.2490
   -48.2483 -48.2477 -48.2293 -48.2277 -48.2271 -48.2258 -36.1262 -36.1248
   -36.0423 -36.0410 -35.9539 -35.9530 -13.3775 -13.3741 -13.2400 -13.2370
    -6.1068  -6.1032  -5.5336  -5.5297  -4.6702  -4.6667  -4.3879  -4.3850
    -3.9722  -3.9692  -3.5146  -3.5129  -0.4380  -0.4340   0.0587   0.0613
     0.9614   0.9632   1.8291   1.8473   3.1494   3.1588   5.6919

          k = 0.2500 0.5774 0.0000 ( 37791 PWs)   bands (ev):

   -61.8713 -61.8704 -48.2938 -48.2922 -48.2922 -48.2918 -48.2906 -48.2903
   -48.2903 -48.2889 -48.2519 -48.2514 -48.2503 -48.2498 -48.2497 -48.2490
   -48.2483 -48.2477 -48.2292 -48.2276 -48.2270 -48.2257 -36.1257 -36.1243
   -36.0519 -36.0505 -35.9524 -35.9514 -13.3389 -13.3354 -13.1701 -13.1671
    -6.1497  -6.1461  -5.5637  -5.5600  -4.8232  -4.8196  -4.2081  -4.2057
    -4.1880  -4.1859  -3.5153  -3.5135  -0.4882  -0.4853   0.3180   0.3190
     0.7543   0.7565   2.0529   2.0621   3.0143   3.0199   5.6366

          k = 0.3125 0.5413 0.0000 ( 37789 PWs)   bands (ev):

   -61.8709 -61.8701 -48.2933 -48.2925 -48.2917 -48.2914 -48.2909 -48.2907
   -48.2900 -48.2892 -48.2518 -48.2515 -48.2502 -48.2499 -48.2498 -48.2490
   -48.2484 -48.2477 -48.2292 -48.2276 -48.2270 -48.2257 -36.1082 -36.1068
   -36.0744 -36.0730 -35.9516 -35.9506 -13.2595 -13.2561 -13.1975 -13.1945
    -5.8455  -5.8419  -5.5735  -5.5696  -5.2627  -5.2593  -4.2212  -4.2187
    -3.8833  -3.8812  -3.8796  -3.8784  -0.1512  -0.1473   0.0270   0.0291
     0.6548   0.6570   2.2573   2.2735   2.8263   2.8344   5.5842

     the Fermi energy is    -0.2993 ev

!    total energy              =   -2326.92371245 Ry
     total all-electron energy =    -35628.671541 Ry
     estimated scf accuracy    <          6.4E-09 Ry
     smearing contrib. (-TS)   =       0.00088936 Ry
     internal energy E=F+TS    =   -2326.92460181 Ry

     The total energy is F=E-TS. E is the sum of the following terms:
     one-electron contribution =  -23345.06907822 Ry
     hartree contribution      =   11660.75291647 Ry
     xc contribution           =    -152.42380258 Ry
     ewald contribution        =   10520.32979780 Ry
     one-center paw contrib.   =   -1010.51443529 Ry

     convergence has been achieved in  23 iterations

     Writing all to output data dir ./tmp/cleave_015/mose2_cleave_015.save/ :
     XML data file, charge density, pseudopotentials, collected wavefunctions

     init_run     :     11.73s CPU     11.96s WALL (       1 calls)
     electrons    :    439.10s CPU    447.64s WALL (       1 calls)

     Called by init_run:
     wfcinit      :      5.38s CPU      5.44s WALL (       1 calls)
     potinit      :      5.70s CPU      5.75s WALL (       1 calls)
     hinit0       :      0.05s CPU      0.06s WALL (       1 calls)

     Called by electrons:
     c_bands      :    365.47s CPU    368.07s WALL (      24 calls)
     sum_band     :     48.81s CPU     51.50s WALL (      24 calls)
     v_of_rho     :     14.72s CPU     15.57s WALL (      24 calls)
     newd         :      8.71s CPU     11.12s WALL (      24 calls)
     PAW_pot      :      1.46s CPU      1.52s WALL (      24 calls)
     mix_rho      :      5.75s CPU      5.79s WALL (      24 calls)
     vdW_kernel   :      5.26s CPU      5.26s WALL (       1 calls)

     Called by c_bands:
     init_us_2    :      3.31s CPU      3.33s WALL (    1470 calls)
     cegterg      :    358.04s CPU    360.54s WALL (     720 calls)

     Called by *egterg:
     cdiaghg      :     11.10s CPU     11.12s WALL (    3101 calls)
     h_psi        :    160.83s CPU    161.77s WALL (    3161 calls)
     s_psi        :     35.23s CPU     35.29s WALL (    3161 calls)
     g_psi        :      0.63s CPU      0.63s WALL (    2411 calls)

     Called by h_psi:
     h_psi:calbec :     47.06s CPU     47.41s WALL (    3161 calls)
     vloc_psi     :     69.60s CPU     70.11s WALL (    3161 calls)
                                        0.00s GPU  (    3161 calls)
     add_vuspsi   :     43.56s CPU     43.62s WALL (    3161 calls)

     General routines
     calbec       :     67.55s CPU     68.07s WALL (    3881 calls)
     fft          :      5.23s CPU      5.31s WALL (    1511 calls)
     ffts         :      2.03s CPU      2.04s WALL (    2754 calls)
     fftw         :     75.75s CPU     76.29s WALL (  214764 calls)
     interpolate  :      0.11s CPU      0.11s WALL (      24 calls)

     Parallel routines

     PWSCF        :   7m31.50s CPU   7m40.50s WALL


   This run was terminated on:  10:52:13  20Jun2026            

=------------------------------------------------------------------------------=
   JOB DONE.
=------------------------------------------------------------------------------=
Note: The following floating-point exceptions are signalling: IEEE_UNDERFLOW_FLAG IEEE_DENORMAL
Note: The following floating-point exceptions are signalling: IEEE_UNDERFLOW_FLAG IEEE_DENORMAL
Note: The following floating-point exceptions are signalling: IEEE_UNDERFLOW_FLAG IEEE_DENORMAL
Note: The following floating-point exceptions are signalling: IEEE_UNDERFLOW_FLAG IEEE_DENORMAL
Note: The following floating-point exceptions are signalling: IEEE_UNDERFLOW_FLAG IEEE_DENORMAL
Note: The following floating-point exceptions are signalling: IEEE_UNDERFLOW_FLAG IEEE_DENORMAL
Note: The following floating-point exceptions are signalling: IEEE_UNDERFLOW_FLAG IEEE_DENORMAL
Note: The following floating-point exceptions are signalling: IEEE_UNDERFLOW_FLAG IEEE_DENORMAL
Note: The following floating-point exceptions are signalling: IEEE_UNDERFLOW_FLAG IEEE_DENORMAL
Note: The following floating-point exceptions are signalling: IEEE_UNDERFLOW_FLAG IEEE_DENORMAL
Note: The following floating-point exceptions are signalling: IEEE_UNDERFLOW_FLAG IEEE_DENORMAL
Note: The following floating-point exceptions are signalling: IEEE_UNDERFLOW_FLAG IEEE_DENORMAL
Note: The following floating-point exceptions are signalling: IEEE_UNDERFLOW_FLAG IEEE_DENORMAL
Note: The following floating-point exceptions are signalling: IEEE_UNDERFLOW_FLAG IEEE_DENORMAL
Note: The following floating-point exceptions are signalling: IEEE_UNDERFLOW_FLAG IEEE_DENORMAL
Note: The following floating-point exceptions are signalling: IEEE_UNDERFLOW_FLAG IEEE_DENORMAL
Note: The following floating-point exceptions are signalling: IEEE_UNDERFLOW_FLAG IEEE_DENORMAL
Note: The following floating-point exceptions are signalling: IEEE_UNDERFLOW_FLAG IEEE_DENORMAL
Note: The following floating-point exceptions are signalling: IEEE_UNDERFLOW_FLAG IEEE_DENORMAL
Note: The following floating-point exceptions are signalling: IEEE_UNDERFLOW_FLAG IEEE_DENORMAL
Note: The following floating-point exceptions are signalling: IEEE_UNDERFLOW_FLAG IEEE_DENORMAL
Note: The following floating-point exceptions are signalling: IEEE_UNDERFLOW_FLAG IEEE_DENORMAL
Note: The following floating-point exceptions are signalling: IEEE_UNDERFLOW_FLAG IEEE_DENORMAL
Note: The following floating-point exceptions are signalling: IEEE_UNDERFLOW_FLAG IEEE_DENORMAL
