
     Program PWSCF v.7.5 starts on 20Jun2026 at 11:59:52 

     This program is part of the open-source Quantum ESPRESSO suite
     for quantum simulation of materials; please cite
         "P. Giannozzi et al., J. Phys.:Condens. Matter 21 395502 (2009);
         "P. Giannozzi et al., J. Phys.:Condens. Matter 29 465901 (2017);
         "P. Giannozzi et al., J. Chem. Phys. 152 154105 (2020);
          URL http://www.quantum-espresso.org", 
     in publications or presentations arising from this work. More details at
     http://www.quantum-espresso.org/quote

     Parallel version (MPI), running on    24 processors

     MPI processes distributed on     1 nodes
     13292 MiB available memory on the printing compute node when the environment starts

     Waiting for input...
     Reading input from standard input

     Current dimensions of program PWSCF are:
     Max number of different atomic species (ntypx) = 10
     Max number of k-points (npk) =  40000
     Max angular momentum in pseudopotentials (lmaxx) =  4
     file Mo.pbe-spn-kjpaw_psl.1.0.0.UPF: wavefunction(s)  4S 4D renormalized
     file Se.pbe-dn-kjpaw_psl.1.0.0.UPF: wavefunction(s)  4S 4P 3D renormalized

     IMPORTANT: XC functional enforced from input :
     Exchange-correlation= VDW-DF2-B86R
                           (   1   4  26   0   2   0   0)
     Any further DFT definition will be discarded
     Please, verify this is what you really want


     R & G space division:  proc/nbgrp/npool/nimage =      24
     Subspace diagonalization in iterative solution of the eigenvalue problem:
     a serial algorithm will be used


     Parallelization info
     --------------------
     sticks:   dense  smooth     PW     G-vecs:    dense   smooth      PW
     Min          69      35     10                35537    12585    1924
     Max          70      36     11                35620    12648    1981
     Sum        1675     847    241               853823   302525   46513

     Using Slab Decomposition



     bravais-lattice index     =            4
     lattice parameter (alat)  =       6.1794  a.u.
     unit-cell volume          =    3124.5879 (a.u.)^3
     number of atoms/cell      =            6
     number of atomic types    =            2
     number of electrons       =        92.00
     number of Kohn-Sham states=           55
     kinetic-energy cutoff     =      80.0000  Ry
     charge density cutoff     =     640.0000  Ry
     scf convergence threshold =      1.0E-08
     mixing beta               =       0.3000
     number of iterations used =            8  local-TF  mixing
     Exchange-correlation= VDW-DF2-B86R
                           (   1   4  26   0   2   0   0)

     celldm(1)=   6.179404  celldm(2)=   0.000000  celldm(3)=  15.290520
     celldm(4)=   0.000000  celldm(5)=   0.000000  celldm(6)=   0.000000

     crystal axes: (cart. coord. in units of alat)
               a(1) = (   1.000000   0.000000   0.000000 )  
               a(2) = (  -0.500000   0.866025   0.000000 )  
               a(3) = (   0.000000   0.000000  15.290520 )  

     reciprocal axes: (cart. coord. in units 2 pi/alat)
               b(1) = (  1.000000  0.577350 -0.000000 )  
               b(2) = (  0.000000  1.154701  0.000000 )  
               b(3) = (  0.000000 -0.000000  0.065400 )  


     PseudoPot. # 1 for Mo read from file:
     ./pseudo/Mo.pbe-spn-kjpaw_psl.1.0.0.UPF
     MD5 check sum: 4396e0c640fcce5c25f020efccf1ab12
     Pseudo is Projector augmented-wave + core cor, Zval = 14.0
     Generated using &quot;atomic&quot; code by A. Dal Corso  v.6.3
     Shape of augmentation charge: PSQ
     Using radial grid of 1229 points,  6 beta functions with: 
                l(1) =   0
                l(2) =   0
                l(3) =   1
                l(4) =   1
                l(5) =   2
                l(6) =   2
     Q(r) pseudized with 0 coefficients 


     PseudoPot. # 2 for Se read from file:
     ./pseudo/Se.pbe-dn-kjpaw_psl.1.0.0.UPF
     MD5 check sum: ac240dd2bae32a30e0bf3a38df9c8785
     Pseudo is Projector augmented-wave + core cor, Zval = 16.0
     Generated using &quot;atomic&quot; code by A. Dal Corso  v.6.3
     Shape of augmentation charge: PSQ
     Using radial grid of 1211 points,  6 beta functions with: 
                l(1) =   0
                l(2) =   0
                l(3) =   1
                l(4) =   1
                l(5) =   2
                l(6) =   2
     Q(r) pseudized with 0 coefficients 


     atomic species   valence    mass     pseudopotential
     Mo               14.00    95.96000     Mo( 1.00)
     Se               16.00    78.96000     Se( 1.00)

      6 Sym. Ops. (no inversion) found



   Cartesian axes

     site n.     atom                  positions (alat units)
         1        Se     tau(   1) = (  -0.0000005   0.5773506   6.1238532  )
         2        Mo     tau(   2) = (   0.0000000   0.0000000   6.6502752  )
         3        Se     tau(   3) = (   0.5000005   0.2886748   7.1775994  )
         4        Se     tau(   4) = (  -0.0000005   0.5773506   9.6413914  )
         5        Mo     tau(   5) = (   0.5000005   0.2886748  10.1685780  )
         6        Se     tau(   6) = (   0.0000000   0.0000000  10.6957187  )

     number of k points=    30  Methfessel-Paxton smearing, width (Ry)=  0.0200
                       cart. coord. in units 2pi/alat
        k(    1) = (   0.0000000   0.0000000   0.0000000), wk =   0.0078125
        k(    2) = (   0.0000000   0.0721688   0.0000000), wk =   0.0468750
        k(    3) = (   0.0000000   0.1443376   0.0000000), wk =   0.0468750
        k(    4) = (   0.0000000   0.2165064   0.0000000), wk =   0.0468750
        k(    5) = (   0.0000000   0.2886751   0.0000000), wk =   0.0468750
        k(    6) = (   0.0000000   0.3608439   0.0000000), wk =   0.0468750
        k(    7) = (   0.0000000   0.4330127   0.0000000), wk =   0.0468750
        k(    8) = (   0.0000000   0.5051815   0.0000000), wk =   0.0468750
        k(    9) = (   0.0000000  -0.5773503   0.0000000), wk =   0.0234375
        k(   10) = (   0.0625000   0.1082532   0.0000000), wk =   0.0468750
        k(   11) = (   0.0625000   0.1804220   0.0000000), wk =   0.0937500
        k(   12) = (   0.0625000   0.2525907   0.0000000), wk =   0.0937500
        k(   13) = (   0.0625000   0.3247595   0.0000000), wk =   0.0937500
        k(   14) = (   0.0625000   0.3969283   0.0000000), wk =   0.0937500
        k(   15) = (   0.0625000   0.4690971   0.0000000), wk =   0.0937500
        k(   16) = (   0.0625000   0.5412659   0.0000000), wk =   0.0937500
        k(   17) = (   0.1250000   0.2165064   0.0000000), wk =   0.0468750
        k(   18) = (   0.1250000   0.2886751   0.0000000), wk =   0.0937500
        k(   19) = (   0.1250000   0.3608439   0.0000000), wk =   0.0937500
        k(   20) = (   0.1250000   0.4330127   0.0000000), wk =   0.0937500
        k(   21) = (   0.1250000   0.5051815   0.0000000), wk =   0.0937500
        k(   22) = (   0.1250000   0.5773503   0.0000000), wk =   0.0468750
        k(   23) = (   0.1875000   0.3247595   0.0000000), wk =   0.0468750
        k(   24) = (   0.1875000   0.3969283   0.0000000), wk =   0.0937500
        k(   25) = (   0.1875000   0.4690971   0.0000000), wk =   0.0937500
        k(   26) = (   0.1875000   0.5412659   0.0000000), wk =   0.0937500
        k(   27) = (   0.2500000   0.4330127   0.0000000), wk =   0.0468750
        k(   28) = (   0.2500000   0.5051815   0.0000000), wk =   0.0937500
        k(   29) = (   0.2500000   0.5773503   0.0000000), wk =   0.0468750
        k(   30) = (   0.3125000   0.5412659   0.0000000), wk =   0.0468750

     Dense  grid:   853823 G-vectors     FFT dimensions: (  50,  50, 768)

     Smooth grid:   302525 G-vectors     FFT dimensions: (  36,  36, 540)

     Estimated max dynamical RAM per process >     171.88 MB

     Estimated total dynamical RAM >       4.03 GB

     Initial potential from superposition of free atoms

     starting charge      91.9979, renormalised to      92.0000

     negative rho (up, down):  1.700E-04 0.000E+00


     %%%%%%%%%%%%%%%%%%%%%%%%%%%%%%%%%%%%%%%%%%%%%%%%%%%%%%%%%%%%%%%%%%%%%%%%
     %                                                                      %
     % You are using vdW-DF, which was implemented by the Thonhauser group. %
     % Please cite the following two papers that made this development      %
     % possible and the two reviews that describe the various versions:     %
     %                                                                      %
     %   T. Thonhauser et al., PRL 115, 136402 (2015).                      %
     %   T. Thonhauser et al., PRB 76, 125112 (2007).                       %
     %   K. Berland et al., Rep. Prog. Phys. 78, 066501 (2015).             %
     %   D.C. Langreth et al., J. Phys.: Condens. Matter 21, 084203 (2009). %
     %                                                                      %
     % If you are calculating stress with vdW-DF, please also cite:         %
     %                                                                      %
     %   R. Sabatini et al., J. Phys.: Condens. Matter 24, 424209 (2012).   %
     %                                                                      %
     %%%%%%%%%%%%%%%%%%%%%%%%%%%%%%%%%%%%%%%%%%%%%%%%%%%%%%%%%%%%%%%%%%%%%%%%

     %%%%%%%%%%%%%%%%%%%%%%%%%%%%%%%%%%%%%%%%%%%%%%%%%%%%%%%%%%%%%%%%%%%%%%%%
     %                                                                      %
     %  vdW-DF NEWS:                                                        %
     %                                                                      %
     %  * vdW-DF3 is now available. DOI: 10.1021/acs.jctc.0c00471           %
     %    use with input_dft = 'vdW-DF3-opt1' or 'vdW-DF3-opt2'             %
     %                                                                      %
     %  * Unscreened and range-separated hybrid vdW-DF-cx functionals       %
     %    DOI: 10.1063/1.4986522 and 10.1088/1361-648X/ac2ad2               %
     %    use with input_dft = 'vdW-DF-cx0'    and 'vdW-DF-ahcx'            %
     %  * Unscreened and range-separated hybrid vdW-DF2-b86r functionals    %
     %    DOI: 10.1063/1.4986522 and DOI: 10.1103/PhysRevX.12.041003        %
     %    use with input_dft = 'vdW-DF2-br0' and 'vdW-DF2-ahbr'             %
     %                                                                      %
     %%%%%%%%%%%%%%%%%%%%%%%%%%%%%%%%%%%%%%%%%%%%%%%%%%%%%%%%%%%%%%%%%%%%%%%%


     Starting wfcs are   56 randomized atomic wfcs
     Checking if some PAW data can be deallocated... 

     total cpu time spent up to now is       12.0 secs

     per-process dynamical memory:    79.7 Mb

     Self-consistent Calculation

     iteration #  1     ecut=    80.00 Ry     beta= 0.30
     Davidson diagonalization with overlap
     ethr =  1.00E-02,  avg # of iterations =  4.4

     Threshold (ethr) on eigenvalues was too large:
     Diagonalizing with lowered threshold

     Davidson diagonalization with overlap
     ethr =  4.49E-04,  avg # of iterations =  2.0

     negative rho (up, down):  3.537E-05 0.000E+00

     total cpu time spent up to now is       49.7 secs

     total energy              =   -2326.96280992 Ry
     estimated scf accuracy    <       0.46050914 Ry

     iteration #  2     ecut=    80.00 Ry     beta= 0.30
     Davidson diagonalization with overlap
     ethr =  5.01E-04,  avg # of iterations =  1.6

     negative rho (up, down):  1.787E-05 0.000E+00

     total cpu time spent up to now is       65.9 secs

     total energy              =   -2326.91631344 Ry
     estimated scf accuracy    <       0.24306153 Ry

     iteration #  3     ecut=    80.00 Ry     beta= 0.30
     Davidson diagonalization with overlap
     ethr =  2.64E-04,  avg # of iterations =  5.3

     negative rho (up, down):  7.332E-06 0.000E+00

     total cpu time spent up to now is       84.9 secs

     total energy              =   -2326.92307056 Ry
     estimated scf accuracy    <       0.03189461 Ry

     iteration #  4     ecut=    80.00 Ry     beta= 0.30
     Davidson diagonalization with overlap
     ethr =  3.47E-05,  avg # of iterations =  6.7

     negative rho (up, down):  3.385E-06 0.000E+00

     total cpu time spent up to now is      105.6 secs

     total energy              =   -2326.92321302 Ry
     estimated scf accuracy    <       0.01015384 Ry

     iteration #  5     ecut=    80.00 Ry     beta= 0.30
     Davidson diagonalization with overlap
     ethr =  1.10E-05,  avg # of iterations =  3.8

     negative rho (up, down):  6.544E-07 0.000E+00

     total cpu time spent up to now is      125.8 secs

     total energy              =   -2326.92233670 Ry
     estimated scf accuracy    <       0.00421162 Ry

     iteration #  6     ecut=    80.00 Ry     beta= 0.30
     Davidson diagonalization with overlap
     c_bands:  1 eigenvalues not converged
     c_bands:  1 eigenvalues not converged
     c_bands:  1 eigenvalues not converged
     ethr =  4.58E-06,  avg # of iterations =  6.7

     negative rho (up, down):  2.972E-07 0.000E+00

     total cpu time spent up to now is      147.7 secs

     total energy              =   -2326.92235662 Ry
     estimated scf accuracy    <       0.00141402 Ry

     iteration #  7     ecut=    80.00 Ry     beta= 0.30
     Davidson diagonalization with overlap
     ethr =  1.54E-06,  avg # of iterations =  3.9

     negative rho (up, down):  2.336E-07 0.000E+00

     total cpu time spent up to now is      166.2 secs

     total energy              =   -2326.92220276 Ry
     estimated scf accuracy    <       0.00124054 Ry

     iteration #  8     ecut=    80.00 Ry     beta= 0.30
     Davidson diagonalization with overlap
     ethr =  1.35E-06,  avg # of iterations =  2.0

     negative rho (up, down):  1.409E-07 0.000E+00

     total cpu time spent up to now is      184.0 secs

     total energy              =   -2326.92218497 Ry
     estimated scf accuracy    <       0.00082673 Ry

     iteration #  9     ecut=    80.00 Ry     beta= 0.30
     Davidson diagonalization with overlap
     ethr =  8.99E-07,  avg # of iterations =  3.1

     negative rho (up, down):  2.068E-03 0.000E+00

     total cpu time spent up to now is      201.8 secs

     total energy              =   -2326.92219425 Ry
     estimated scf accuracy    <       0.00065243 Ry

     iteration # 10     ecut=    80.00 Ry     beta= 0.30
     Davidson diagonalization with overlap
     ethr =  7.09E-07,  avg # of iterations =  5.8

     negative rho (up, down):  2.516E-03 0.000E+00

     total cpu time spent up to now is      219.8 secs

     total energy              =   -2326.92213613 Ry
     estimated scf accuracy    <       0.00053008 Ry

     iteration # 11     ecut=    80.00 Ry     beta= 0.30
     Davidson diagonalization with overlap
     ethr =  5.76E-07,  avg # of iterations =  1.7

     negative rho (up, down):  6.975E-03 0.000E+00

     total cpu time spent up to now is      237.0 secs

     total energy              =   -2326.92199006 Ry
     estimated scf accuracy    <       0.00038533 Ry

     iteration # 12     ecut=    80.00 Ry     beta= 0.30
     Davidson diagonalization with overlap
     ethr =  4.19E-07,  avg # of iterations =  6.3

     negative rho (up, down):  5.780E-03 0.000E+00

     total cpu time spent up to now is      256.2 secs

     total energy              =   -2326.92199959 Ry
     estimated scf accuracy    <       0.00022801 Ry

     iteration # 13     ecut=    80.00 Ry     beta= 0.30
     Davidson diagonalization with overlap
     ethr =  2.48E-07,  avg # of iterations =  5.8

     negative rho (up, down):  4.072E-03 0.000E+00

     total cpu time spent up to now is      275.0 secs

     total energy              =   -2326.92196605 Ry
     estimated scf accuracy    <       0.00011820 Ry

     iteration # 14     ecut=    80.00 Ry     beta= 0.30
     Davidson diagonalization with overlap
     ethr =  1.28E-07,  avg # of iterations =  2.0

     negative rho (up, down):  3.076E-03 0.000E+00

     total cpu time spent up to now is      293.4 secs

     total energy              =   -2326.92200371 Ry
     estimated scf accuracy    <       0.00005764 Ry

     iteration # 15     ecut=    80.00 Ry     beta= 0.30
     Davidson diagonalization with overlap
     ethr =  6.27E-08,  avg # of iterations =  3.5

     negative rho (up, down):  1.233E-03 0.000E+00

     total cpu time spent up to now is      311.4 secs

     total energy              =   -2326.92204727 Ry
     estimated scf accuracy    <       0.00004479 Ry

     iteration # 16     ecut=    80.00 Ry     beta= 0.30
     Davidson diagonalization with overlap
     ethr =  4.87E-08,  avg # of iterations =  5.9

     negative rho (up, down):  7.301E-04 0.000E+00

     total cpu time spent up to now is      331.2 secs

     total energy              =   -2326.92205795 Ry
     estimated scf accuracy    <       0.00002434 Ry

     iteration # 17     ecut=    80.00 Ry     beta= 0.30
     Davidson diagonalization with overlap
     ethr =  2.65E-08,  avg # of iterations =  4.6

     negative rho (up, down):  7.091E-04 0.000E+00

     total cpu time spent up to now is      349.8 secs

     total energy              =   -2326.92206309 Ry
     estimated scf accuracy    <       0.00000899 Ry

     iteration # 18     ecut=    80.00 Ry     beta= 0.30
     Davidson diagonalization with overlap
     ethr =  9.77E-09,  avg # of iterations =  1.3

     negative rho (up, down):  2.827E-04 0.000E+00

     total cpu time spent up to now is      365.9 secs

     total energy              =   -2326.92206507 Ry
     estimated scf accuracy    <       0.00000518 Ry

     iteration # 19     ecut=    80.00 Ry     beta= 0.30
     Davidson diagonalization with overlap
     ethr =  5.63E-09,  avg # of iterations =  4.5

     negative rho (up, down):  2.485E-04 0.000E+00

     total cpu time spent up to now is      386.6 secs

     total energy              =   -2326.92206701 Ry
     estimated scf accuracy    <       0.00000069 Ry

     iteration # 20     ecut=    80.00 Ry     beta= 0.30
     Davidson diagonalization with overlap
     ethr =  7.53E-10,  avg # of iterations =  1.4

     negative rho (up, down):  2.423E-04 0.000E+00

     total cpu time spent up to now is      403.2 secs

     total energy              =   -2326.92206747 Ry
     estimated scf accuracy    <       0.00000044 Ry

     iteration # 21     ecut=    80.00 Ry     beta= 0.30
     Davidson diagonalization with overlap
     ethr =  4.78E-10,  avg # of iterations =  2.7

     negative rho (up, down):  2.468E-04 0.000E+00

     total cpu time spent up to now is      424.9 secs

     total energy              =   -2326.92206771 Ry
     estimated scf accuracy    <       0.00000008 Ry

     iteration # 22     ecut=    80.00 Ry     beta= 0.30
     Davidson diagonalization with overlap
     ethr =  8.24E-11,  avg # of iterations =  2.0

     negative rho (up, down):  2.222E-04 0.000E+00

     total cpu time spent up to now is      443.3 secs

     total energy              =   -2326.92206758 Ry
     estimated scf accuracy    <       0.00000003 Ry

     iteration # 23     ecut=    80.00 Ry     beta= 0.30
     Davidson diagonalization with overlap
     ethr =  3.11E-11,  avg # of iterations =  2.8

     negative rho (up, down):  2.002E-04 0.000E+00

     total cpu time spent up to now is      464.2 secs

     End of self-consistent calculation

          k = 0.0000 0.0000 0.0000 ( 37787 PWs)   bands (ev):

   -61.8964 -61.8954 -48.2915 -48.2915 -48.2911 -48.2911 -48.2900 -48.2900
   -48.2896 -48.2896 -48.2460 -48.2460 -48.2455 -48.2455 -48.2445 -48.2445
   -48.2442 -48.2442 -48.2274 -48.2267 -48.2259 -48.2254 -36.0149 -36.0138
   -35.8995 -35.8995 -35.8981 -35.8981 -15.2943 -15.2908 -14.4761 -14.4746
    -6.4374  -6.4344  -3.3609  -3.3608  -3.3547  -3.3547  -3.3385  -3.3345
    -1.5926  -1.5872  -1.0645  -1.0645  -1.0616  -1.0616   0.2288   0.2289
     0.2317   0.2317   2.9474   2.9474   2.9488   2.9494   2.9495

          k = 0.0000 0.0722 0.0000 ( 37755 PWs)   bands (ev):

   -61.8954 -61.8945 -48.2915 -48.2914 -48.2910 -48.2909 -48.2900 -48.2898
   -48.2896 -48.2894 -48.2461 -48.2461 -48.2456 -48.2455 -48.2446 -48.2445
   -48.2442 -48.2442 -48.2273 -48.2266 -48.2258 -48.2254 -36.0126 -36.0115
   -35.9101 -35.9087 -35.9019 -35.9006 -15.2375 -15.2340 -14.4466 -14.4450
    -6.3597  -6.3566  -3.8335  -3.8294  -3.3289  -3.3227  -2.9341  -2.9307
    -1.6302  -1.6261  -1.2543  -1.2514  -1.2115  -1.2084   0.1207   0.1236
     0.3419   0.3443   2.6139   2.6326   2.8987   2.9008   3.0662

          k = 0.0000 0.1443 0.0000 ( 37697 PWs)   bands (ev):

   -61.8926 -61.8917 -48.2915 -48.2910 -48.2908 -48.2903 -48.2899 -48.2896
   -48.2893 -48.2889 -48.2463 -48.2461 -48.2457 -48.2456 -48.2448 -48.2446
   -48.2443 -48.2442 -48.2270 -48.2264 -48.2255 -48.2251 -36.0062 -36.0052
   -35.9402 -35.9388 -35.9088 -35.9075 -15.0711 -15.0677 -14.3604 -14.3587
    -6.1344  -6.1314  -4.3192  -4.3148  -3.2536  -3.2475  -2.7146  -2.7118
    -2.0776  -2.0752  -1.4990  -1.4956  -1.4573  -1.4542   0.0010   0.0052
     0.5324   0.5343   2.0217   2.0406   2.7990   2.8009   3.3234

          k = 0.0000 0.2165 0.0000 ( 37653 PWs)   bands (ev):

   -61.8885 -61.8876 -48.2915 -48.2910 -48.2900 -48.2899 -48.2896 -48.2895
   -48.2885 -48.2881 -48.2466 -48.2463 -48.2459 -48.2456 -48.2451 -48.2448
   -48.2445 -48.2442 -48.2266 -48.2260 -48.2251 -48.2247 -35.9970 -35.9959
   -35.9847 -35.9833 -35.9192 -35.9178 -14.8082 -14.8049 -14.2241 -14.2221
    -5.7937  -5.7907  -4.7486  -4.7440  -3.2579  -3.2548  -3.2019  -3.1960
    -2.4357  -2.4335  -1.7227  -1.7190  -1.5577  -1.5557  -0.0305  -0.0259
     0.6389   0.6401   1.6594   1.6802   2.7335   2.7353   3.6962

          k = 0.0000 0.2887 0.0000 ( 37721 PWs)   bands (ev):

   -61.8837 -61.8828 -48.2915 -48.2910 -48.2899 -48.2895 -48.2891 -48.2886
   -48.2876 -48.2872 -48.2470 -48.2464 -48.2461 -48.2457 -48.2455 -48.2449
   -48.2447 -48.2443 -48.2262 -48.2255 -48.2247 -48.2243 -36.0377 -36.0363
   -35.9851 -35.9840 -35.9314 -35.9300 -14.4750 -14.4718 -14.0462 -14.0440
    -5.4823  -5.4787  -4.9884  -4.9845  -4.2799  -4.2765  -3.2563  -3.2507
    -2.6209  -2.6196  -1.8101  -1.8090  -1.7663  -1.7623   0.0509   0.0553
     0.6439   0.6450   1.7647   1.7881   2.7347   2.7366   4.1741

          k = 0.0000 0.3608 0.0000 ( 37749 PWs)   bands (ev):

   -61.8788 -61.8779 -48.2915 -48.2909 -48.2900 -48.2895 -48.2882 -48.2877
   -48.2867 -48.2863 -48.2474 -48.2465 -48.2462 -48.2459 -48.2458 -48.2451
   -48.2448 -48.2444 -48.2257 -48.2251 -48.2242 -48.2238 -36.0897 -36.0882
   -35.9738 -35.9727 -35.9436 -35.9422 -14.1267 -14.1235 -13.8268 -13.8243
    -5.5991  -5.5949  -5.2373  -5.2341  -4.7243  -4.7211  -3.4049  -3.3995
    -2.9806  -2.9800  -2.0753  -2.0744  -1.6610  -1.6571   0.3110   0.3143
     0.6208   0.6221   2.1835   2.2072   2.7713   2.7733   4.7301

          k = 0.0000 0.4330 0.0000 ( 37785 PWs)   bands (ev):

   -61.8747 -61.8738 -48.2915 -48.2908 -48.2900 -48.2894 -48.2874 -48.2870
   -48.2859 -48.2856 -48.2478 -48.2467 -48.2464 -48.2463 -48.2458 -48.2452
   -48.2450 -48.2444 -48.2254 -48.2247 -48.2239 -48.2234 -36.1334 -36.1319
   -35.9641 -35.9631 -35.9538 -35.9525 -13.8628 -13.8595 -13.5479 -13.5453
    -6.1996  -6.1957  -5.5771  -5.5740  -4.5345  -4.5320  -3.5641  -3.5588
    -3.2349  -3.2340  -2.2486  -2.2479  -1.5273  -1.5237   0.6353   0.6371
     0.6765   0.6786   2.7014   2.7211   2.8078   2.8101   5.1012

          k = 0.0000 0.5052 0.0000 ( 37822 PWs)   bands (ev):

   -61.8719 -61.8710 -48.2916 -48.2908 -48.2901 -48.2893 -48.2869 -48.2865
   -48.2854 -48.2851 -48.2480 -48.2467 -48.2465 -48.2465 -48.2459 -48.2453
   -48.2451 -48.2445 -48.2251 -48.2245 -48.2236 -48.2232 -36.1625 -36.1610
   -35.9607 -35.9593 -35.9577 -35.9567 -13.7176 -13.7141 -13.2860 -13.2835
    -6.7571  -6.7533  -5.5984  -5.5959  -4.7016  -4.6992  -3.6761  -3.6709
    -3.1148  -3.1133  -2.3767  -2.3761  -1.4401  -1.4368   0.6844   0.6867
     1.0184   1.0193   2.8303   2.8328   3.1534   3.1644   4.6720

          k = 0.0000-0.5774 0.0000 ( 37832 PWs)   bands (ev):

   -61.8710 -61.8701 -48.2916 -48.2908 -48.2901 -48.2893 -48.2868 -48.2863
   -48.2852 -48.2849 -48.2481 -48.2468 -48.2466 -48.2465 -48.2459 -48.2453
   -48.2451 -48.2445 -48.2250 -48.2244 -48.2235 -48.2231 -36.1726 -36.1711
   -35.9631 -35.9617 -35.9554 -35.9544 -13.6701 -13.6665 -13.1794 -13.1769
    -6.9623  -6.9585  -5.5688  -5.5668  -4.8444  -4.8418  -3.7158  -3.7105
    -2.9861  -2.9845  -2.4452  -2.4447  -1.4124  -1.4093   0.7120   0.7144
     1.1655   1.1659   2.8376   2.8401   3.3771   3.3814   4.3456

          k = 0.0625 0.1083 0.0000 ( 37709 PWs)   bands (ev):

   -61.8935 -61.8926 -48.2915 -48.2910 -48.2910 -48.2905 -48.2899 -48.2896
   -48.2894 -48.2891 -48.2462 -48.2461 -48.2456 -48.2456 -48.2447 -48.2446
   -48.2443 -48.2442 -48.2271 -48.2265 -48.2256 -48.2252 -36.0083 -36.0072
   -35.9301 -35.9288 -35.9069 -35.9055 -15.1259 -15.1225 -14.3888 -14.3871
    -6.2077  -6.2047  -4.1903  -4.1859  -3.2824  -3.2763  -2.7352  -2.7321
    -1.8768  -1.8749  -1.4992  -1.4958  -1.3817  -1.3788   0.0617   0.0657
     0.4322   0.4341   2.2487   2.2683   2.7540   2.7569   3.2465

          k = 0.0625 0.1804 0.0000 ( 37703 PWs)   bands (ev):

   -61.8901 -61.8892 -48.2914 -48.2910 -48.2904 -48.2899 -48.2899 -48.2896
   -48.2888 -48.2884 -48.2465 -48.2462 -48.2458 -48.2456 -48.2450 -48.2447
   -48.2444 -48.2443 -48.2268 -48.2261 -48.2253 -48.2249 -36.0003 -35.9993
   -35.9668 -35.9654 -35.9164 -35.9150 -14.9108 -14.9075 -14.2777 -14.2759
    -5.9198  -5.9167  -4.6040  -4.5994  -3.2767  -3.2709  -2.8112  -2.8088
    -2.4538  -2.4514  -1.7540  -1.7508  -1.4137  -1.4110   0.0607   0.0650
     0.4326   0.4340   1.9290   1.9492   2.5803   2.5830   3.5573

          k = 0.0625 0.2526 0.0000 ( 37702 PWs)   bands (ev):

   -61.8856 -61.8847 -48.2914 -48.2909 -48.2899 -48.2895 -48.2895 -48.2890
   -48.2880 -48.2876 -48.2469 -48.2463 -48.2460 -48.2457 -48.2454 -48.2448
   -48.2446 -48.2443 -48.2264 -48.2257 -48.2249 -48.2244 -36.0145 -36.0131
   -35.9897 -35.9886 -35.9288 -35.9274 -14.6107 -14.6074 -14.1216 -14.1195
    -5.5522  -5.5491  -4.9481  -4.9436  -3.8357  -3.8320  -3.2225  -3.2177
    -2.5996  -2.5978  -1.9639  -1.9614  -1.4444  -1.4425  -0.0029   0.0006
     0.5119   0.5143   1.8220   1.8410   2.5500   2.5555   3.9814

          k = 0.0625 0.3248 0.0000 ( 37734 PWs)   bands (ev):

   -61.8808 -61.8799 -48.2914 -48.2908 -48.2899 -48.2894 -48.2886 -48.2882
   -48.2871 -48.2867 -48.2472 -48.2465 -48.2461 -48.2458 -48.2458 -48.2450
   -48.2447 -48.2444 -48.2259 -48.2253 -48.2244 -48.2240 -36.0654 -36.0640
   -35.9784 -35.9774 -35.9421 -35.9408 -14.2623 -14.2591 -13.9281 -13.9257
    -5.4452  -5.4411  -4.9242  -4.9212  -4.7800  -4.7763  -3.4620  -3.4575
    -2.7251  -2.7238  -2.2789  -2.2766  -1.4339  -1.4317   0.0480   0.0509
     0.6609   0.6626   1.9597   1.9763   2.6409   2.6503   4.5040

          k = 0.0625 0.3969 0.0000 ( 37770 PWs)   bands (ev):

   -61.8763 -61.8754 -48.2914 -48.2907 -48.2899 -48.2893 -48.2878 -48.2874
   -48.2863 -48.2859 -48.2476 -48.2466 -48.2463 -48.2461 -48.2458 -48.2452
   -48.2449 -48.2445 -48.2255 -48.2249 -48.2240 -48.2236 -36.1121 -36.1107
   -35.9680 -35.9670 -35.9544 -35.9531 -13.9461 -13.9429 -13.6839 -13.6813
    -5.8153  -5.8113  -5.4810  -5.4777  -4.5587  -4.5558  -3.7070  -3.7029
    -2.9891  -2.9877  -2.4969  -2.4949  -1.3659  -1.3635   0.2455   0.2472
     0.8180   0.8195   2.2502   2.2596   2.8112   2.8250   5.0612

          k = 0.0625 0.4691 0.0000 ( 37798 PWs)   bands (ev):

   -61.8728 -61.8719 -48.2914 -48.2907 -48.2899 -48.2892 -48.2872 -48.2867
   -48.2857 -48.2853 -48.2479 -48.2468 -48.2464 -48.2464 -48.2459 -48.2453
   -48.2449 -48.2445 -48.2252 -48.2245 -48.2237 -48.2233 -36.1477 -36.1462
   -35.9642 -35.9629 -35.9596 -35.9586 -13.7487 -13.7452 -13.3983 -13.3957
    -6.4703  -6.4665  -5.5874  -5.5845  -4.5531  -4.5507  -3.8009  -3.7964
    -3.1041  -3.1023  -2.6023  -2.6006  -1.3259  -1.3236   0.4877   0.4891
     1.0003   1.0015   2.4784   2.4813   3.0690   3.0819   5.1169

          k = 0.0625 0.5413 0.0000 ( 37791 PWs)   bands (ev):

   -61.8710 -61.8701 -48.2915 -48.2906 -48.2899 -48.2892 -48.2869 -48.2864
   -48.2853 -48.2850 -48.2480 -48.2469 -48.2466 -48.2464 -48.2459 -48.2454
   -48.2450 -48.2445 -48.2250 -48.2244 -48.2235 -48.2231 -36.1668 -36.1653
   -35.9691 -35.9678 -35.9554 -35.9544 -13.6555 -13.6519 -13.2031 -13.2006
    -6.8572  -6.8534  -5.5698  -5.5676  -4.7630  -4.7604  -3.8184  -3.8137
    -2.9910  -2.9892  -2.6746  -2.6732  -1.3270  -1.3248   0.6677   0.6699
     1.1302   1.1308   2.5762   2.5784   3.3160   3.3219   4.6454

          k = 0.1250 0.2165 0.0000 ( 37731 PWs)   bands (ev):

   -61.8863 -61.8854 -48.2914 -48.2909 -48.2898 -48.2897 -48.2895 -48.2892
   -48.2882 -48.2878 -48.2468 -48.2463 -48.2459 -48.2457 -48.2453 -48.2448
   -48.2445 -48.2444 -48.2264 -48.2258 -48.2249 -48.2245 -36.0046 -36.0032
   -35.9915 -35.9905 -35.9293 -35.9279 -14.6572 -14.6540 -14.1475 -14.1454
    -5.5829  -5.5799  -4.9158  -4.9111  -3.6941  -3.6896  -3.0095  -3.0073
    -2.8640  -2.8598  -1.9317  -1.9294  -1.3233  -1.3211   0.0524   0.0542
     0.3119   0.3165   2.1520   2.1758   2.1849   2.1874   3.9195

          k = 0.1250 0.2887 0.0000 ( 37723 PWs)   bands (ev):

   -61.8818 -61.8809 -48.2912 -48.2907 -48.2897 -48.2893 -48.2890 -48.2885
   -48.2874 -48.2871 -48.2472 -48.2464 -48.2461 -48.2458 -48.2457 -48.2449
   -48.2447 -48.2445 -48.2260 -48.2254 -48.2245 -48.2241 -36.0482 -36.0468
   -35.9812 -35.9802 -35.9453 -35.9439 -14.3348 -14.3316 -13.9803 -13.9779
    -5.2691  -5.2652  -5.0801  -5.0764  -4.4619  -4.4581  -3.4618  -3.4587
    -2.9536  -2.9500  -2.1994  -2.1979  -1.1963  -1.1945  -0.1605  -0.1583
     0.6051   0.6086   1.8722   1.8758   2.4633   2.4874   4.3912

          k = 0.1250 0.3608 0.0000 ( 37761 PWs)   bands (ev):

   -61.8773 -61.8764 -48.2912 -48.2905 -48.2896 -48.2891 -48.2882 -48.2878
   -48.2867 -48.2864 -48.2475 -48.2466 -48.2462 -48.2460 -48.2459 -48.2451
   -48.2448 -48.2446 -48.2256 -48.2250 -48.2241 -48.2237 -36.0911 -36.0896
   -35.9714 -35.9703 -35.9610 -35.9597 -13.9946 -13.9915 -13.7793 -13.7767
    -5.4721  -5.4678  -5.2618  -5.2584  -4.6658  -4.6628  -3.8499  -3.8465
    -3.0529  -3.0499  -2.6296  -2.6282  -1.0653  -1.0636  -0.1251  -0.1233
     0.8885   0.8905   1.7904   1.7939   2.7740   2.7959   4.9470

          k = 0.1250 0.4330 0.0000 ( 37768 PWs)   bands (ev):

   -61.8735 -61.8726 -48.2911 -48.2904 -48.2896 -48.2889 -48.2876 -48.2872
   -48.2861 -48.2857 -48.2477 -48.2468 -48.2463 -48.2463 -48.2460 -48.2453
   -48.2448 -48.2446 -48.2252 -48.2246 -48.2238 -48.2233 -36.1271 -36.1256
   -35.9764 -35.9750 -35.9611 -35.9601 -13.7447 -13.7414 -13.5162 -13.5135
    -6.0617  -6.0579  -5.5209  -5.5174  -4.3951  -4.3925  -4.0771  -4.0735
    -3.1645  -3.1619  -2.9782  -2.9765  -1.0331  -1.0318   0.1187   0.1200
     1.0793   1.0806   1.9008   1.9034   3.0574   3.0727   5.4226

          k = 0.1250 0.5052 0.0000 ( 37794 PWs)   bands (ev):

   -61.8710 -61.8701 -48.2911 -48.2903 -48.2895 -48.2888 -48.2872 -48.2868
   -48.2857 -48.2853 -48.2479 -48.2470 -48.2464 -48.2463 -48.2460 -48.2455
   -48.2449 -48.2447 -48.2250 -48.2244 -48.2235 -48.2231 -36.1510 -36.1495
   -35.9854 -35.9840 -35.9554 -35.9544 -13.6128 -13.6093 -13.2672 -13.2646
    -6.5650  -6.5612  -5.5541  -5.5512  -4.5678  -4.5652  -4.0288  -4.0250
    -3.2458  -3.2435  -3.0422  -3.0402  -1.0902  -1.0892   0.4568   0.4581
     1.1287   1.1299   2.0680   2.0699   3.2491   3.2563   5.2961

          k = 0.1250 0.5774 0.0000 ( 37780 PWs)   bands (ev):

   -61.8701 -61.8692 -48.2911 -48.2902 -48.2895 -48.2888 -48.2871 -48.2866
   -48.2855 -48.2852 -48.2480 -48.2470 -48.2465 -48.2463 -48.2460 -48.2456
   -48.2449 -48.2447 -48.2249 -48.2243 -48.2234 -48.2230 -36.1594 -36.1579
   -35.9887 -35.9873 -35.9534 -35.9524 -13.5691 -13.5656 -13.1679 -13.1653
    -6.7485  -6.7448  -5.5461  -5.5435  -4.6824  -4.6797  -4.0252  -4.0212
    -3.2750  -3.2728  -2.9968  -2.9948  -1.1293  -1.1283   0.6584   0.6602
     1.0803   1.0811   2.1512   2.1529   3.3158   3.3193   5.0160

          k = 0.1875 0.3248 0.0000 ( 37725 PWs)   bands (ev):

   -61.8777 -61.8768 -48.2910 -48.2904 -48.2895 -48.2890 -48.2884 -48.2880
   -48.2869 -48.2865 -48.2474 -48.2465 -48.2462 -48.2460 -48.2460 -48.2450
   -48.2448 -48.2446 -48.2256 -48.2250 -48.2241 -48.2237 -36.0815 -36.0801
   -35.9734 -35.9723 -35.9646 -35.9633 -14.0100 -14.0069 -13.8140 -13.8114
    -5.3398  -5.3353  -5.0932  -5.0894  -4.7548  -4.7519  -3.8528  -3.8503
    -3.3338  -3.3298  -2.5103  -2.5091  -0.8969  -0.8952  -0.3049  -0.3032
     0.8866   0.8890   1.6044   1.6058   2.7618   2.7863   4.9018

          k = 0.1875 0.3969 0.0000 ( 37753 PWs)   bands (ev):

   -61.8739 -61.8730 -48.2908 -48.2901 -48.2892 -48.2886 -48.2880 -48.2875
   -48.2864 -48.2861 -48.2477 -48.2467 -48.2463 -48.2462 -48.2460 -48.2453
   -48.2449 -48.2447 -48.2253 -48.2246 -48.2238 -48.2234 -36.1103 -36.1088
   -35.9887 -35.9873 -35.9619 -35.9609 -13.7070 -13.7039 -13.6166 -13.6138
    -5.6929  -5.6891  -5.4435  -5.4395  -4.3542  -4.3514  -4.2049  -4.2021
    -3.6594  -3.6560  -2.9090  -2.9078  -0.6904  -0.6893  -0.2366  -0.2355
     1.1086   1.1099   1.5236   1.5253   3.0588   3.0756   5.4596

          k = 0.1875 0.4691 0.0000 ( 37759 PWs)   bands (ev):

   -61.8710 -61.8701 -48.2906 -48.2898 -48.2891 -48.2883 -48.2876 -48.2872
   -48.2861 -48.2858 -48.2478 -48.2470 -48.2464 -48.2463 -48.2460 -48.2455
   -48.2450 -48.2447 -48.2250 -48.2244 -48.2235 -48.2231 -36.1312 -36.1297
   -36.0057 -36.0043 -35.9555 -35.9545 -13.5466 -13.5433 -13.3543 -13.3515
    -6.1771  -6.1734  -5.5108  -5.5072  -4.4268  -4.4238  -4.1181  -4.1153
    -3.8850  -3.8822  -3.1791  -3.1774  -0.7418  -0.7413   0.1055   0.1063
     1.1489   1.1501   1.6746   1.6764   3.2281   3.2357   5.7022

          k = 0.1875 0.5413 0.0000 ( 37793 PWs)   bands (ev):

   -61.8694 -61.8685 -48.2905 -48.2896 -48.2889 -48.2882 -48.2875 -48.2870
   -48.2859 -48.2856 -48.2478 -48.2472 -48.2465 -48.2464 -48.2460 -48.2457
   -48.2451 -48.2447 -48.2249 -48.2243 -48.2234 -48.2230 -36.1421 -36.1407
   -36.0154 -36.0140 -35.9519 -35.9509 -13.4690 -13.4656 -13.1848 -13.1820
    -6.4544  -6.4508  -5.5393  -5.5361  -4.5203  -4.5173  -4.1608  -4.1578
    -3.9597  -3.9575  -3.2002  -3.1984  -0.8297  -0.8294   0.4724   0.4732
     1.0014   1.0027   1.8857   1.8870   3.2264   3.2296   5.6293

          k = 0.2500 0.4330 0.0000 ( 37711 PWs)   bands (ev):

   -61.8710 -61.8701 -48.2903 -48.2895 -48.2888 -48.2881 -48.2879 -48.2874
   -48.2863 -48.2860 -48.2477 -48.2469 -48.2466 -48.2463 -48.2460 -48.2454
   -48.2452 -48.2446 -48.2250 -48.2244 -48.2235 -48.2231 -36.1208 -36.1193
   -36.0163 -36.0149 -35.9555 -35.9545 -13.4848 -13.4816 -13.4246 -13.4217
    -5.9566  -5.9529  -5.4793  -5.4753  -4.4083  -4.4058  -4.2483  -4.2450
    -4.0438  -4.0409  -3.2748  -3.2735  -0.3311  -0.3303  -0.3102  -0.3091
     1.1443   1.1453   1.5496   1.5514   3.2266   3.2342   5.8819

          k = 0.2500 0.5052 0.0000 ( 37776 PWs)   bands (ev):

   -61.8690 -61.8681 -48.2899 -48.2892 -48.2884 -48.2879 -48.2877 -48.2874
   -48.2864 -48.2860 -48.2477 -48.2471 -48.2467 -48.2463 -48.2460 -48.2457
   -48.2453 -48.2446 -48.2248 -48.2242 -48.2233 -48.2230 -36.1233 -36.1218
   -36.0394 -36.0380 -35.9510 -35.9500 -13.3751 -13.3718 -13.2376 -13.2347
    -6.1043  -6.1007  -5.5310  -5.5272  -4.6677  -4.6642  -4.3855  -4.3833
    -3.9699  -3.9676  -3.5127  -3.5110  -0.4334  -0.4331   0.0624   0.0629
     0.9646   0.9659   1.8413   1.8429   3.1568   3.1595   5.7942

          k = 0.2500 0.5774 0.0000 ( 37791 PWs)   bands (ev):

   -61.8683 -61.8674 -48.2898 -48.2890 -48.2883 -48.2879 -48.2875 -48.2875
   -48.2864 -48.2860 -48.2477 -48.2473 -48.2467 -48.2462 -48.2460 -48.2458
   -48.2454 -48.2446 -48.2248 -48.2242 -48.2233 -48.2229 -36.1227 -36.1213
   -36.0489 -36.0475 -35.9495 -35.9485 -13.3365 -13.3331 -13.1678 -13.1648
    -6.1472  -6.1437  -5.5612  -5.5575  -4.8207  -4.8171  -4.2058  -4.2036
    -4.1862  -4.1842  -3.5135  -3.5116  -0.4842  -0.4840   0.3211   0.3211
     0.7573   0.7593   2.0606   2.0616   3.0200   3.0219   5.6864

          k = 0.3125 0.5413 0.0000 ( 37789 PWs)   bands (ev):

   -61.8680 -61.8671 -48.2893 -48.2886 -48.2883 -48.2878 -48.2878 -48.2871
   -48.2867 -48.2864 -48.2476 -48.2473 -48.2469 -48.2461 -48.2460 -48.2458
   -48.2456 -48.2446 -48.2247 -48.2241 -48.2232 -48.2229 -36.1052 -36.1038
   -36.0714 -36.0700 -35.9486 -35.9476 -13.2571 -13.2537 -13.1952 -13.1921
    -5.8430  -5.8395  -5.5709  -5.5670  -5.2603  -5.2569  -4.2188  -4.2169
    -3.8807  -3.8787  -3.8783  -3.8773  -0.1468  -0.1462   0.0306   0.0308
     0.6577   0.6599   2.2683   2.2698   2.8329   2.8346   5.6179

     the Fermi energy is    -0.2959 ev

!    total energy              =   -2326.92206783 Ry
     total all-electron energy =    -35628.669897 Ry
     estimated scf accuracy    <          7.9E-09 Ry
     smearing contrib. (-TS)   =       0.00090193 Ry
     internal energy E=F+TS    =   -2326.92296975 Ry

     The total energy is F=E-TS. E is the sum of the following terms:
     one-electron contribution =  -19820.76607927 Ry
     hartree contribution      =    9898.61251343 Ry
     xc contribution           =    -152.42430413 Ry
     ewald contribution        =    8758.16937659 Ry
     one-center paw contrib.   =   -1010.51447637 Ry

     convergence has been achieved in  23 iterations

     Writing all to output data dir ./tmp/cleave_025/mose2_cleave_025.save/ :
     XML data file, charge density, pseudopotentials, collected wavefunctions

     init_run     :     11.66s CPU     11.85s WALL (       1 calls)
     electrons    :    439.81s CPU    452.21s WALL (       1 calls)

     Called by init_run:
     wfcinit      :      5.32s CPU      5.34s WALL (       1 calls)
     potinit      :      5.71s CPU      5.75s WALL (       1 calls)
     hinit0       :      0.05s CPU      0.06s WALL (       1 calls)

     Called by electrons:
     c_bands      :    365.92s CPU    372.91s WALL (      24 calls)
     sum_band     :     48.49s CPU     51.18s WALL (      24 calls)
     v_of_rho     :     14.82s CPU     15.65s WALL (      24 calls)
     newd         :      9.25s CPU     11.11s WALL (      24 calls)
     PAW_pot      :      1.49s CPU      1.54s WALL (      24 calls)
     mix_rho      :      5.68s CPU      5.78s WALL (      24 calls)
     vdW_kernel   :      5.26s CPU      5.26s WALL (       1 calls)

     Called by c_bands:
     init_us_2    :      2.28s CPU      2.29s WALL (    1470 calls)
     cegterg      :    355.53s CPU    362.19s WALL (     720 calls)

     Called by *egterg:
     cdiaghg      :      9.22s CPU      9.24s WALL (    3381 calls)
     h_psi        :    143.71s CPU    145.53s WALL (    3441 calls)
     s_psi        :     22.35s CPU     22.38s WALL (    3441 calls)
     g_psi        :      0.33s CPU      0.33s WALL (    2691 calls)

     Called by h_psi:
     h_psi:calbec :     46.48s CPU     47.48s WALL (    3441 calls)
     vloc_psi     :     70.97s CPU     71.75s WALL (    3441 calls)
                                        0.00s GPU  (    3441 calls)
     add_vuspsi   :     25.89s CPU     25.92s WALL (    3441 calls)

     General routines
     calbec       :     66.37s CPU     67.80s WALL (    4161 calls)
     fft          :      6.86s CPU      7.06s WALL (    1511 calls)
     ffts         :      2.18s CPU      2.19s WALL (    2754 calls)
     fftw         :     82.54s CPU     83.47s WALL (  217082 calls)
     interpolate  :      0.11s CPU      0.11s WALL (      24 calls)

     Parallel routines

     PWSCF        :   7m32.19s CPU   7m45.12s WALL


   This run was terminated on:  12: 7:37  20Jun2026            

=------------------------------------------------------------------------------=
   JOB DONE.
=------------------------------------------------------------------------------=
Note: The following floating-point exceptions are signalling: IEEE_UNDERFLOW_FLAG IEEE_DENORMAL
Note: The following floating-point exceptions are signalling: IEEE_UNDERFLOW_FLAG IEEE_DENORMAL
Note: The following floating-point exceptions are signalling: IEEE_UNDERFLOW_FLAG IEEE_DENORMAL
Note: The following floating-point exceptions are signalling: IEEE_UNDERFLOW_FLAG IEEE_DENORMAL
Note: The following floating-point exceptions are signalling: IEEE_UNDERFLOW_FLAG IEEE_DENORMAL
Note: The following floating-point exceptions are signalling: IEEE_UNDERFLOW_FLAG IEEE_DENORMAL
Note: The following floating-point exceptions are signalling: IEEE_UNDERFLOW_FLAG IEEE_DENORMAL
Note: The following floating-point exceptions are signalling: IEEE_UNDERFLOW_FLAG IEEE_DENORMAL
Note: The following floating-point exceptions are signalling: IEEE_UNDERFLOW_FLAG IEEE_DENORMAL
Note: The following floating-point exceptions are signalling: IEEE_UNDERFLOW_FLAG IEEE_DENORMAL
Note: The following floating-point exceptions are signalling: IEEE_UNDERFLOW_FLAG IEEE_DENORMAL
Note: The following floating-point exceptions are signalling: IEEE_UNDERFLOW_FLAG IEEE_DENORMAL
Note: The following floating-point exceptions are signalling: IEEE_UNDERFLOW_FLAG IEEE_DENORMAL
Note: The following floating-point exceptions are signalling: IEEE_UNDERFLOW_FLAG IEEE_DENORMAL
Note: The following floating-point exceptions are signalling: IEEE_UNDERFLOW_FLAG IEEE_DENORMAL
Note: The following floating-point exceptions are signalling: IEEE_UNDERFLOW_FLAG IEEE_DENORMAL
Note: The following floating-point exceptions are signalling: IEEE_UNDERFLOW_FLAG IEEE_DENORMAL
Note: The following floating-point exceptions are signalling: IEEE_UNDERFLOW_FLAG IEEE_DENORMAL
Note: The following floating-point exceptions are signalling: IEEE_UNDERFLOW_FLAG IEEE_DENORMAL
Note: The following floating-point exceptions are signalling: IEEE_UNDERFLOW_FLAG IEEE_DENORMAL
Note: The following floating-point exceptions are signalling: IEEE_UNDERFLOW_FLAG IEEE_DENORMAL
Note: The following floating-point exceptions are signalling: IEEE_UNDERFLOW_FLAG IEEE_DENORMAL
Note: The following floating-point exceptions are signalling: IEEE_UNDERFLOW_FLAG IEEE_DENORMAL
Note: The following floating-point exceptions are signalling: IEEE_UNDERFLOW_FLAG IEEE_DENORMAL
