
     Program PWSCF v.7.5 starts on 20Jun2026 at 12:40:37 

     This program is part of the open-source Quantum ESPRESSO suite
     for quantum simulation of materials; please cite
         "P. Giannozzi et al., J. Phys.:Condens. Matter 21 395502 (2009);
         "P. Giannozzi et al., J. Phys.:Condens. Matter 29 465901 (2017);
         "P. Giannozzi et al., J. Chem. Phys. 152 154105 (2020);
          URL http://www.quantum-espresso.org", 
     in publications or presentations arising from this work. More details at
     http://www.quantum-espresso.org/quote

     Parallel version (MPI), running on    24 processors

     MPI processes distributed on     1 nodes
     21864 MiB available memory on the printing compute node when the environment starts

     Waiting for input...
     Reading input from standard input

     Current dimensions of program PWSCF are:
     Max number of different atomic species (ntypx) = 10
     Max number of k-points (npk) =  40000
     Max angular momentum in pseudopotentials (lmaxx) =  4
     file Mo.pbe-spn-kjpaw_psl.1.0.0.UPF: wavefunction(s)  4S 4D renormalized
     file Se.pbe-dn-kjpaw_psl.1.0.0.UPF: wavefunction(s)  4S 4P 3D renormalized

     IMPORTANT: XC functional enforced from input :
     Exchange-correlation= VDW-DF2-B86R
                           (   1   4  26   0   2   0   0)
     Any further DFT definition will be discarded
     Please, verify this is what you really want


     R & G space division:  proc/nbgrp/npool/nimage =      24
     Subspace diagonalization in iterative solution of the eigenvalue problem:
     a serial algorithm will be used


     Parallelization info
     --------------------
     sticks:   dense  smooth     PW     G-vecs:    dense   smooth      PW
     Min          69      35     10                35537    12585    1924
     Max          70      36     11                35620    12648    1981
     Sum        1675     847    241               853823   302525   46513

     Using Slab Decomposition



     bravais-lattice index     =            4
     lattice parameter (alat)  =       6.1794  a.u.
     unit-cell volume          =    3124.5879 (a.u.)^3
     number of atoms/cell      =            6
     number of atomic types    =            2
     number of electrons       =        92.00
     number of Kohn-Sham states=           55
     kinetic-energy cutoff     =      80.0000  Ry
     charge density cutoff     =     640.0000  Ry
     scf convergence threshold =      1.0E-08
     mixing beta               =       0.3000
     number of iterations used =            8  local-TF  mixing
     Exchange-correlation= VDW-DF2-B86R
                           (   1   4  26   0   2   0   0)

     celldm(1)=   6.179404  celldm(2)=   0.000000  celldm(3)=  15.290520
     celldm(4)=   0.000000  celldm(5)=   0.000000  celldm(6)=   0.000000

     crystal axes: (cart. coord. in units of alat)
               a(1) = (   1.000000   0.000000   0.000000 )  
               a(2) = (  -0.500000   0.866025   0.000000 )  
               a(3) = (   0.000000   0.000000  15.290520 )  

     reciprocal axes: (cart. coord. in units 2 pi/alat)
               b(1) = (  1.000000  0.577350 -0.000000 )  
               b(2) = (  0.000000  1.154701  0.000000 )  
               b(3) = (  0.000000 -0.000000  0.065400 )  


     PseudoPot. # 1 for Mo read from file:
     ./pseudo/Mo.pbe-spn-kjpaw_psl.1.0.0.UPF
     MD5 check sum: 4396e0c640fcce5c25f020efccf1ab12
     Pseudo is Projector augmented-wave + core cor, Zval = 14.0
     Generated using &quot;atomic&quot; code by A. Dal Corso  v.6.3
     Shape of augmentation charge: PSQ
     Using radial grid of 1229 points,  6 beta functions with: 
                l(1) =   0
                l(2) =   0
                l(3) =   1
                l(4) =   1
                l(5) =   2
                l(6) =   2
     Q(r) pseudized with 0 coefficients 


     PseudoPot. # 2 for Se read from file:
     ./pseudo/Se.pbe-dn-kjpaw_psl.1.0.0.UPF
     MD5 check sum: ac240dd2bae32a30e0bf3a38df9c8785
     Pseudo is Projector augmented-wave + core cor, Zval = 16.0
     Generated using &quot;atomic&quot; code by A. Dal Corso  v.6.3
     Shape of augmentation charge: PSQ
     Using radial grid of 1211 points,  6 beta functions with: 
                l(1) =   0
                l(2) =   0
                l(3) =   1
                l(4) =   1
                l(5) =   2
                l(6) =   2
     Q(r) pseudized with 0 coefficients 


     atomic species   valence    mass     pseudopotential
     Mo               14.00    95.96000     Mo( 1.00)
     Se               16.00    78.96000     Se( 1.00)

      6 Sym. Ops. (no inversion) found



   Cartesian axes

     site n.     atom                  positions (alat units)
         1        Se     tau(   1) = (  -0.0000005   0.5773506   6.1238532  )
         2        Mo     tau(   2) = (   0.0000000   0.0000000   6.6502752  )
         3        Se     tau(   3) = (   0.5000005   0.2886748   7.1775994  )
         4        Se     tau(   4) = (  -0.0000005   0.5773506   9.9472018  )
         5        Mo     tau(   5) = (   0.5000005   0.2886748  10.4743884  )
         6        Se     tau(   6) = (   0.0000000   0.0000000  11.0015291  )

     number of k points=    30  Methfessel-Paxton smearing, width (Ry)=  0.0200
                       cart. coord. in units 2pi/alat
        k(    1) = (   0.0000000   0.0000000   0.0000000), wk =   0.0078125
        k(    2) = (   0.0000000   0.0721688   0.0000000), wk =   0.0468750
        k(    3) = (   0.0000000   0.1443376   0.0000000), wk =   0.0468750
        k(    4) = (   0.0000000   0.2165064   0.0000000), wk =   0.0468750
        k(    5) = (   0.0000000   0.2886751   0.0000000), wk =   0.0468750
        k(    6) = (   0.0000000   0.3608439   0.0000000), wk =   0.0468750
        k(    7) = (   0.0000000   0.4330127   0.0000000), wk =   0.0468750
        k(    8) = (   0.0000000   0.5051815   0.0000000), wk =   0.0468750
        k(    9) = (   0.0000000  -0.5773503   0.0000000), wk =   0.0234375
        k(   10) = (   0.0625000   0.1082532   0.0000000), wk =   0.0468750
        k(   11) = (   0.0625000   0.1804220   0.0000000), wk =   0.0937500
        k(   12) = (   0.0625000   0.2525907   0.0000000), wk =   0.0937500
        k(   13) = (   0.0625000   0.3247595   0.0000000), wk =   0.0937500
        k(   14) = (   0.0625000   0.3969283   0.0000000), wk =   0.0937500
        k(   15) = (   0.0625000   0.4690971   0.0000000), wk =   0.0937500
        k(   16) = (   0.0625000   0.5412659   0.0000000), wk =   0.0937500
        k(   17) = (   0.1250000   0.2165064   0.0000000), wk =   0.0468750
        k(   18) = (   0.1250000   0.2886751   0.0000000), wk =   0.0937500
        k(   19) = (   0.1250000   0.3608439   0.0000000), wk =   0.0937500
        k(   20) = (   0.1250000   0.4330127   0.0000000), wk =   0.0937500
        k(   21) = (   0.1250000   0.5051815   0.0000000), wk =   0.0937500
        k(   22) = (   0.1250000   0.5773503   0.0000000), wk =   0.0468750
        k(   23) = (   0.1875000   0.3247595   0.0000000), wk =   0.0468750
        k(   24) = (   0.1875000   0.3969283   0.0000000), wk =   0.0937500
        k(   25) = (   0.1875000   0.4690971   0.0000000), wk =   0.0937500
        k(   26) = (   0.1875000   0.5412659   0.0000000), wk =   0.0937500
        k(   27) = (   0.2500000   0.4330127   0.0000000), wk =   0.0468750
        k(   28) = (   0.2500000   0.5051815   0.0000000), wk =   0.0937500
        k(   29) = (   0.2500000   0.5773503   0.0000000), wk =   0.0468750
        k(   30) = (   0.3125000   0.5412659   0.0000000), wk =   0.0468750

     Dense  grid:   853823 G-vectors     FFT dimensions: (  50,  50, 768)

     Smooth grid:   302525 G-vectors     FFT dimensions: (  36,  36, 540)

     Estimated max dynamical RAM per process >     171.88 MB

     Estimated total dynamical RAM >       4.03 GB

     Initial potential from superposition of free atoms

     starting charge      91.9979, renormalised to      92.0000

     negative rho (up, down):  1.672E-04 0.000E+00


     %%%%%%%%%%%%%%%%%%%%%%%%%%%%%%%%%%%%%%%%%%%%%%%%%%%%%%%%%%%%%%%%%%%%%%%%
     %                                                                      %
     % You are using vdW-DF, which was implemented by the Thonhauser group. %
     % Please cite the following two papers that made this development      %
     % possible and the two reviews that describe the various versions:     %
     %                                                                      %
     %   T. Thonhauser et al., PRL 115, 136402 (2015).                      %
     %   T. Thonhauser et al., PRB 76, 125112 (2007).                       %
     %   K. Berland et al., Rep. Prog. Phys. 78, 066501 (2015).             %
     %   D.C. Langreth et al., J. Phys.: Condens. Matter 21, 084203 (2009). %
     %                                                                      %
     % If you are calculating stress with vdW-DF, please also cite:         %
     %                                                                      %
     %   R. Sabatini et al., J. Phys.: Condens. Matter 24, 424209 (2012).   %
     %                                                                      %
     %%%%%%%%%%%%%%%%%%%%%%%%%%%%%%%%%%%%%%%%%%%%%%%%%%%%%%%%%%%%%%%%%%%%%%%%

     %%%%%%%%%%%%%%%%%%%%%%%%%%%%%%%%%%%%%%%%%%%%%%%%%%%%%%%%%%%%%%%%%%%%%%%%
     %                                                                      %
     %  vdW-DF NEWS:                                                        %
     %                                                                      %
     %  * vdW-DF3 is now available. DOI: 10.1021/acs.jctc.0c00471           %
     %    use with input_dft = 'vdW-DF3-opt1' or 'vdW-DF3-opt2'             %
     %                                                                      %
     %  * Unscreened and range-separated hybrid vdW-DF-cx functionals       %
     %    DOI: 10.1063/1.4986522 and 10.1088/1361-648X/ac2ad2               %
     %    use with input_dft = 'vdW-DF-cx0'    and 'vdW-DF-ahcx'            %
     %  * Unscreened and range-separated hybrid vdW-DF2-b86r functionals    %
     %    DOI: 10.1063/1.4986522 and DOI: 10.1103/PhysRevX.12.041003        %
     %    use with input_dft = 'vdW-DF2-br0' and 'vdW-DF2-ahbr'             %
     %                                                                      %
     %%%%%%%%%%%%%%%%%%%%%%%%%%%%%%%%%%%%%%%%%%%%%%%%%%%%%%%%%%%%%%%%%%%%%%%%


     Starting wfcs are   56 randomized atomic wfcs
     Checking if some PAW data can be deallocated... 

     total cpu time spent up to now is       12.1 secs

     per-process dynamical memory:    79.7 Mb

     Self-consistent Calculation

     iteration #  1     ecut=    80.00 Ry     beta= 0.30
     Davidson diagonalization with overlap
     ethr =  1.00E-02,  avg # of iterations =  4.4

     Threshold (ethr) on eigenvalues was too large:
     Diagonalizing with lowered threshold

     Davidson diagonalization with overlap
     ethr =  4.50E-04,  avg # of iterations =  2.0

     negative rho (up, down):  3.354E-05 0.000E+00

     total cpu time spent up to now is       50.2 secs

     total energy              =   -2326.96271683 Ry
     estimated scf accuracy    <       0.46082792 Ry

     iteration #  2     ecut=    80.00 Ry     beta= 0.30
     Davidson diagonalization with overlap
     ethr =  5.01E-04,  avg # of iterations =  1.4

     negative rho (up, down):  8.018E-06 0.000E+00

     total cpu time spent up to now is       66.2 secs

     total energy              =   -2326.91605935 Ry
     estimated scf accuracy    <       0.24393095 Ry

     iteration #  3     ecut=    80.00 Ry     beta= 0.30
     Davidson diagonalization with overlap
     ethr =  2.65E-04,  avg # of iterations =  5.1

     negative rho (up, down):  3.434E-06 0.000E+00

     total cpu time spent up to now is       85.3 secs

     total energy              =   -2326.92280877 Ry
     estimated scf accuracy    <       0.03209753 Ry

     iteration #  4     ecut=    80.00 Ry     beta= 0.30
     Davidson diagonalization with overlap
     ethr =  3.49E-05,  avg # of iterations =  6.7

     negative rho (up, down):  1.878E-06 0.000E+00

     total cpu time spent up to now is      107.7 secs

     total energy              =   -2326.92300278 Ry
     estimated scf accuracy    <       0.01037484 Ry

     iteration #  5     ecut=    80.00 Ry     beta= 0.30
     Davidson diagonalization with overlap
     c_bands:  1 eigenvalues not converged
     c_bands:  1 eigenvalues not converged
     c_bands:  1 eigenvalues not converged
     ethr =  1.13E-05,  avg # of iterations =  5.4

     negative rho (up, down):  7.396E-07 0.000E+00

     total cpu time spent up to now is      130.1 secs

     total energy              =   -2326.92209499 Ry
     estimated scf accuracy    <       0.00441030 Ry

     iteration #  6     ecut=    80.00 Ry     beta= 0.30
     Davidson diagonalization with overlap
     c_bands:  1 eigenvalues not converged
     ethr =  4.79E-06,  avg # of iterations =  6.1

     negative rho (up, down):  3.452E-07 0.000E+00

     total cpu time spent up to now is      152.2 secs

     total energy              =   -2326.92206307 Ry
     estimated scf accuracy    <       0.00151034 Ry

     iteration #  7     ecut=    80.00 Ry     beta= 0.30
     Davidson diagonalization with overlap
     c_bands:  1 eigenvalues not converged
     ethr =  1.64E-06,  avg # of iterations =  5.6

     negative rho (up, down):  2.067E-07 0.000E+00

     total cpu time spent up to now is      171.1 secs

     total energy              =   -2326.92189658 Ry
     estimated scf accuracy    <       0.00127352 Ry

     iteration #  8     ecut=    80.00 Ry     beta= 0.30
     Davidson diagonalization with overlap
     c_bands:  1 eigenvalues not converged
     ethr =  1.38E-06,  avg # of iterations =  5.8

     negative rho (up, down):  1.076E-07 0.000E+00

     total cpu time spent up to now is      190.2 secs

     total energy              =   -2326.92190756 Ry
     estimated scf accuracy    <       0.00075039 Ry

     iteration #  9     ecut=    80.00 Ry     beta= 0.30
     Davidson diagonalization with overlap
     ethr =  8.16E-07,  avg # of iterations =  3.9

     negative rho (up, down):  2.537E-03 0.000E+00

     total cpu time spent up to now is      207.9 secs

     total energy              =   -2326.92194885 Ry
     estimated scf accuracy    <       0.00058334 Ry

     iteration # 10     ecut=    80.00 Ry     beta= 0.30
     Davidson diagonalization with overlap
     ethr =  6.34E-07,  avg # of iterations =  6.2

     negative rho (up, down):  2.948E-03 0.000E+00

     total cpu time spent up to now is      226.4 secs

     total energy              =   -2326.92193234 Ry
     estimated scf accuracy    <       0.00049066 Ry

     iteration # 11     ecut=    80.00 Ry     beta= 0.30
     Davidson diagonalization with overlap
     ethr =  5.33E-07,  avg # of iterations =  1.1

     negative rho (up, down):  4.331E-03 0.000E+00

     total cpu time spent up to now is      242.1 secs

     total energy              =   -2326.92180575 Ry
     estimated scf accuracy    <       0.00041400 Ry

     iteration # 12     ecut=    80.00 Ry     beta= 0.30
     Davidson diagonalization with overlap
     ethr =  4.50E-07,  avg # of iterations =  6.0

     negative rho (up, down):  5.394E-03 0.000E+00

     total cpu time spent up to now is      261.3 secs

     total energy              =   -2326.92176875 Ry
     estimated scf accuracy    <       0.00026611 Ry

     iteration # 13     ecut=    80.00 Ry     beta= 0.30
     Davidson diagonalization with overlap
     ethr =  2.89E-07,  avg # of iterations =  5.4

     negative rho (up, down):  4.783E-03 0.000E+00

     total cpu time spent up to now is      279.9 secs

     total energy              =   -2326.92165727 Ry
     estimated scf accuracy    <       0.00016909 Ry

     iteration # 14     ecut=    80.00 Ry     beta= 0.30
     Davidson diagonalization with overlap
     c_bands:  1 eigenvalues not converged
     ethr =  1.84E-07,  avg # of iterations =  6.0

     negative rho (up, down):  3.816E-03 0.000E+00

     total cpu time spent up to now is      300.5 secs

     total energy              =   -2326.92171914 Ry
     estimated scf accuracy    <       0.00004470 Ry

     iteration # 15     ecut=    80.00 Ry     beta= 0.30
     Davidson diagonalization with overlap
     ethr =  4.86E-08,  avg # of iterations =  2.2

     negative rho (up, down):  1.720E-03 0.000E+00

     total cpu time spent up to now is      317.8 secs

     total energy              =   -2326.92180579 Ry
     estimated scf accuracy    <       0.00002948 Ry

     iteration # 16     ecut=    80.00 Ry     beta= 0.30
     Davidson diagonalization with overlap
     ethr =  3.20E-08,  avg # of iterations =  6.3

     negative rho (up, down):  1.064E-03 0.000E+00

     total cpu time spent up to now is      339.2 secs

     total energy              =   -2326.92182169 Ry
     estimated scf accuracy    <       0.00001266 Ry

     iteration # 17     ecut=    80.00 Ry     beta= 0.30
     Davidson diagonalization with overlap
     ethr =  1.38E-08,  avg # of iterations =  1.6

     negative rho (up, down):  8.075E-04 0.000E+00

     total cpu time spent up to now is      355.8 secs

     total energy              =   -2326.92182500 Ry
     estimated scf accuracy    <       0.00000766 Ry

     iteration # 18     ecut=    80.00 Ry     beta= 0.30
     Davidson diagonalization with overlap
     ethr =  8.32E-09,  avg # of iterations =  6.9

     negative rho (up, down):  5.577E-04 0.000E+00

     total cpu time spent up to now is      376.1 secs

     total energy              =   -2326.92182507 Ry
     estimated scf accuracy    <       0.00000365 Ry

     iteration # 19     ecut=    80.00 Ry     beta= 0.30
     Davidson diagonalization with overlap
     ethr =  3.97E-09,  avg # of iterations =  2.0

     negative rho (up, down):  3.130E-04 0.000E+00

     total cpu time spent up to now is      394.4 secs

     total energy              =   -2326.92183251 Ry
     estimated scf accuracy    <       0.00000141 Ry

     iteration # 20     ecut=    80.00 Ry     beta= 0.30
     Davidson diagonalization with overlap
     ethr =  1.53E-09,  avg # of iterations =  5.4

     negative rho (up, down):  3.635E-04 0.000E+00

     total cpu time spent up to now is      415.3 secs

     total energy              =   -2326.92183359 Ry
     estimated scf accuracy    <       0.00000031 Ry

     iteration # 21     ecut=    80.00 Ry     beta= 0.30
     Davidson diagonalization with overlap
     ethr =  3.37E-10,  avg # of iterations =  2.1

     negative rho (up, down):  2.499E-04 0.000E+00

     total cpu time spent up to now is      434.9 secs

     total energy              =   -2326.92183437 Ry
     estimated scf accuracy    <       0.00000012 Ry

     iteration # 22     ecut=    80.00 Ry     beta= 0.30
     Davidson diagonalization with overlap
     ethr =  1.26E-10,  avg # of iterations =  2.2

     negative rho (up, down):  2.020E-04 0.000E+00

     total cpu time spent up to now is      454.3 secs

     total energy              =   -2326.92183487 Ry
     estimated scf accuracy    <       0.00000004 Ry

     iteration # 23     ecut=    80.00 Ry     beta= 0.30
     Davidson diagonalization with overlap
     ethr =  4.15E-11,  avg # of iterations =  2.3

     negative rho (up, down):  1.970E-04 0.000E+00

     total cpu time spent up to now is      473.1 secs

     End of self-consistent calculation

          k = 0.0000 0.0000 0.0000 ( 37787 PWs)   bands (ev):

   -61.8959 -61.8950 -48.2911 -48.2911 -48.2906 -48.2906 -48.2899 -48.2899
   -48.2893 -48.2893 -48.2456 -48.2456 -48.2450 -48.2450 -48.2444 -48.2444
   -48.2439 -48.2439 -48.2269 -48.2263 -48.2258 -48.2252 -36.0144 -36.0133
   -35.8990 -35.8990 -35.8977 -35.8977 -15.2939 -15.2905 -14.4757 -14.4742
    -6.4370  -6.4340  -3.3605  -3.3605  -3.3544  -3.3544  -3.3365  -3.3355
    -1.5903  -1.5883  -1.0641  -1.0641  -1.0612  -1.0612   0.2292   0.2292
     0.2320   0.2320   2.9477   2.9477   2.9498   2.9498   3.0725

          k = 0.0000 0.0722 0.0000 ( 37755 PWs)   bands (ev):

   -61.8949 -61.8940 -48.2911 -48.2909 -48.2906 -48.2904 -48.2899 -48.2897
   -48.2893 -48.2891 -48.2456 -48.2456 -48.2451 -48.2451 -48.2445 -48.2444
   -48.2439 -48.2439 -48.2268 -48.2262 -48.2257 -48.2251 -36.0121 -36.0111
   -35.9096 -35.9083 -35.9014 -35.9001 -15.2371 -15.2337 -14.4463 -14.4447
    -6.3593  -6.3563  -3.8330  -3.8291  -3.3285  -3.3224  -2.9330  -2.9308
    -1.6283  -1.6268  -1.2538  -1.2510  -1.2111  -1.2080   0.1215   0.1237
     0.3422   0.3447   2.6218   2.6312   2.8991   2.9011   3.1812

          k = 0.0000 0.1443 0.0000 ( 37697 PWs)   bands (ev):

   -61.8922 -61.8913 -48.2910 -48.2905 -48.2904 -48.2898 -48.2898 -48.2893
   -48.2892 -48.2886 -48.2458 -48.2457 -48.2452 -48.2451 -48.2447 -48.2445
   -48.2441 -48.2439 -48.2266 -48.2259 -48.2254 -48.2248 -36.0057 -36.0047
   -35.9397 -35.9384 -35.9084 -35.9070 -15.0708 -15.0674 -14.3601 -14.3584
    -6.1340  -6.1310  -4.3188  -4.3144  -3.2532  -3.2471  -2.7136  -2.7120
    -2.0771  -2.0749  -1.4986  -1.4952  -1.4557  -1.4547   0.0028   0.0046
     0.5328   0.5346   2.0286   2.0376   2.7993   2.8012   3.4374

          k = 0.0000 0.2165 0.0000 ( 37653 PWs)   bands (ev):

   -61.8880 -61.8872 -48.2910 -48.2905 -48.2898 -48.2896 -48.2893 -48.2890
   -48.2884 -48.2878 -48.2462 -48.2458 -48.2454 -48.2452 -48.2450 -48.2446
   -48.2442 -48.2440 -48.2262 -48.2255 -48.2250 -48.2244 -35.9965 -35.9955
   -35.9842 -35.9829 -35.9187 -35.9174 -14.8079 -14.8046 -14.2237 -14.2218
    -5.7934  -5.7904  -4.7482  -4.7436  -3.2575  -3.2545  -3.2015  -3.1956
    -2.4346  -2.4338  -1.7223  -1.7186  -1.5565  -1.5558  -0.0284  -0.0268
     0.6392   0.6405   1.6671   1.6760   2.7339   2.7357   3.8086

          k = 0.0000 0.2887 0.0000 ( 37721 PWs)   bands (ev):

   -61.8832 -61.8823 -48.2910 -48.2905 -48.2898 -48.2893 -48.2887 -48.2881
   -48.2875 -48.2869 -48.2466 -48.2460 -48.2456 -48.2454 -48.2452 -48.2448
   -48.2444 -48.2440 -48.2257 -48.2251 -48.2246 -48.2240 -36.0372 -36.0359
   -35.9846 -35.9836 -35.9309 -35.9296 -14.4746 -14.4714 -14.0459 -14.0437
    -5.4819  -5.4784  -4.9881  -4.9841  -4.2795  -4.2761  -3.2559  -3.2503
    -2.6200  -2.6197  -1.8095  -1.8088  -1.7659  -1.7619   0.0530   0.0545
     0.6443   0.6453   1.7735   1.7830   2.7351   2.7369   4.2863

          k = 0.0000 0.3608 0.0000 ( 37749 PWs)   bands (ev):

   -61.8783 -61.8775 -48.2910 -48.2904 -48.2898 -48.2892 -48.2878 -48.2873
   -48.2866 -48.2860 -48.2470 -48.2461 -48.2458 -48.2458 -48.2453 -48.2449
   -48.2446 -48.2441 -48.2253 -48.2246 -48.2241 -48.2235 -36.0892 -36.0878
   -35.9733 -35.9723 -35.9431 -35.9418 -14.1263 -14.1232 -13.8264 -13.8240
    -5.5987  -5.5945  -5.2369  -5.2338  -4.7239  -4.7208  -3.4045  -3.3991
    -2.9801  -2.9800  -2.0748  -2.0741  -1.6607  -1.6567   0.3127   0.3138
     0.6212   0.6224   2.1925   2.2018   2.7716   2.7737   4.8436

          k = 0.0000 0.4330 0.0000 ( 37785 PWs)   bands (ev):

   -61.8742 -61.8733 -48.2911 -48.2903 -48.2899 -48.2891 -48.2870 -48.2865
   -48.2858 -48.2853 -48.2473 -48.2462 -48.2461 -48.2459 -48.2454 -48.2450
   -48.2447 -48.2442 -48.2249 -48.2243 -48.2237 -48.2231 -36.1329 -36.1315
   -35.9636 -35.9626 -35.9534 -35.9520 -13.8625 -13.8591 -13.5475 -13.5450
    -6.1992  -6.1953  -5.5768  -5.5736  -4.5342  -4.5317  -3.5637  -3.5584
    -3.2345  -3.2338  -2.2482  -2.2476  -1.5270  -1.5233   0.6357   0.6374
     0.6778   0.6784   2.7090   2.7166   2.8081   2.8105   5.1442

          k = 0.0000 0.5052 0.0000 ( 37822 PWs)   bands (ev):

   -61.8715 -61.8706 -48.2911 -48.2903 -48.2899 -48.2891 -48.2865 -48.2860
   -48.2853 -48.2848 -48.2475 -48.2464 -48.2463 -48.2460 -48.2454 -48.2451
   -48.2448 -48.2442 -48.2246 -48.2240 -48.2235 -48.2229 -36.1620 -36.1605
   -35.9602 -35.9589 -35.9572 -35.9562 -13.7173 -13.7137 -13.2857 -13.2832
    -6.7567  -6.7529  -5.5980  -5.5955  -4.7013  -4.6989  -3.6757  -3.6705
    -3.1145  -3.1131  -2.3764  -2.3758  -1.4397  -1.4365   0.6849   0.6871
     1.0192   1.0195   2.8307   2.8332   3.1577   3.1623   4.6748

          k = 0.0000-0.5774 0.0000 ( 37832 PWs)   bands (ev):

   -61.8705 -61.8696 -48.2912 -48.2903 -48.2899 -48.2891 -48.2863 -48.2858
   -48.2851 -48.2846 -48.2476 -48.2465 -48.2463 -48.2460 -48.2454 -48.2451
   -48.2449 -48.2442 -48.2246 -48.2239 -48.2234 -48.2228 -36.1722 -36.1707
   -35.9626 -35.9613 -35.9549 -35.9539 -13.6698 -13.6662 -13.1791 -13.1766
    -6.9619  -6.9581  -5.5684  -5.5664  -4.8441  -4.8415  -3.7154  -3.7102
    -2.9858  -2.9842  -2.4448  -2.4443  -1.4120  -1.4090   0.7124   0.7149
     1.1661   1.1662   2.8379   2.8405   3.3789   3.3813   4.3498

          k = 0.0625 0.1083 0.0000 ( 37709 PWs)   bands (ev):

   -61.8930 -61.8922 -48.2910 -48.2906 -48.2905 -48.2900 -48.2898 -48.2894
   -48.2893 -48.2888 -48.2458 -48.2457 -48.2452 -48.2451 -48.2446 -48.2445
   -48.2440 -48.2439 -48.2267 -48.2260 -48.2255 -48.2249 -36.0078 -36.0068
   -35.9297 -35.9284 -35.9064 -35.9051 -15.1255 -15.1221 -14.3885 -14.3868
    -6.2074  -6.2043  -4.1898  -4.1856  -3.2820  -3.2759  -2.7340  -2.7323
    -1.8762  -1.8746  -1.4988  -1.4954  -1.3804  -1.3790   0.0633   0.0652
     0.4325   0.4344   2.2560   2.2657   2.7550   2.7572   3.3597

          k = 0.0625 0.1804 0.0000 ( 37703 PWs)   bands (ev):

   -61.8896 -61.8887 -48.2910 -48.2905 -48.2899 -48.2898 -48.2894 -48.2893
   -48.2887 -48.2882 -48.2461 -48.2457 -48.2453 -48.2452 -48.2449 -48.2446
   -48.2441 -48.2440 -48.2263 -48.2257 -48.2252 -48.2246 -35.9998 -35.9988
   -35.9663 -35.9649 -35.9159 -35.9146 -14.9104 -14.9071 -14.2773 -14.2755
    -5.9194  -5.9164  -4.6035  -4.5990  -3.2763  -3.2705  -2.8106  -2.8085
    -2.4533  -2.4512  -1.7535  -1.7505  -1.4123  -1.4114   0.0627   0.0643
     0.4332   0.4343   1.9364   1.9455   2.5812   2.5832   3.6689

          k = 0.0625 0.2526 0.0000 ( 37702 PWs)   bands (ev):

   -61.8851 -61.8843 -48.2910 -48.2904 -48.2898 -48.2892 -48.2891 -48.2886
   -48.2879 -48.2873 -48.2464 -48.2459 -48.2455 -48.2452 -48.2452 -48.2447
   -48.2443 -48.2441 -48.2259 -48.2253 -48.2248 -48.2242 -36.0140 -36.0126
   -35.9892 -35.9882 -35.9283 -35.9270 -14.6103 -14.6071 -14.1213 -14.1192
    -5.5519  -5.5488  -4.9477  -4.9433  -3.8353  -3.8317  -3.2221  -3.2174
    -2.5991  -2.5976  -1.9634  -1.9611  -1.4436  -1.4424  -0.0012   0.0000
     0.5131   0.5142   1.8292   1.8371   2.5520   2.5549   4.0920

          k = 0.0625 0.3248 0.0000 ( 37734 PWs)   bands (ev):

   -61.8803 -61.8794 -48.2909 -48.2904 -48.2897 -48.2891 -48.2882 -48.2877
   -48.2870 -48.2865 -48.2468 -48.2460 -48.2457 -48.2456 -48.2453 -48.2449
   -48.2445 -48.2441 -48.2255 -48.2248 -48.2243 -48.2237 -36.0649 -36.0635
   -35.9779 -35.9769 -35.9417 -35.9403 -14.2620 -14.2588 -13.9278 -13.9254
    -5.4449  -5.4407  -4.9239  -4.9209  -4.7796  -4.7759  -3.4616  -3.4571
    -2.7247  -2.7235  -2.2785  -2.2763  -1.4335  -1.4314   0.0496   0.0505
     0.6618   0.6627   1.9662   1.9727   2.6444   2.6488   4.6162

          k = 0.0625 0.3969 0.0000 ( 37770 PWs)   bands (ev):

   -61.8758 -61.8749 -48.2910 -48.2903 -48.2898 -48.2890 -48.2874 -48.2869
   -48.2862 -48.2856 -48.2471 -48.2462 -48.2460 -48.2458 -48.2454 -48.2450
   -48.2447 -48.2442 -48.2250 -48.2244 -48.2239 -48.2233 -36.1117 -36.1102
   -35.9675 -35.9665 -35.9539 -35.9526 -13.9458 -13.9426 -13.6836 -13.6810
    -5.8149  -5.8109  -5.4806  -5.4773  -4.5584  -4.5555  -3.7066  -3.7026
    -2.9888  -2.9874  -2.4966  -2.4945  -1.3655  -1.3631   0.2466   0.2471
     0.8188   0.8197   2.2540   2.2578   2.8164   2.8223   5.1727

          k = 0.0625 0.4691 0.0000 ( 37798 PWs)   bands (ev):

   -61.8723 -61.8715 -48.2910 -48.2902 -48.2898 -48.2890 -48.2868 -48.2863
   -48.2856 -48.2850 -48.2474 -48.2463 -48.2463 -48.2459 -48.2454 -48.2452
   -48.2447 -48.2443 -48.2247 -48.2241 -48.2236 -48.2230 -36.1472 -36.1457
   -35.9638 -35.9624 -35.9591 -35.9581 -13.7483 -13.7449 -13.3979 -13.3954
    -6.4699  -6.4662  -5.5871  -5.5841  -4.5528  -4.5504  -3.8005  -3.7961
    -3.1038  -3.1021  -2.6019  -2.6003  -1.3255  -1.3233   0.4882   0.4894
     1.0010   1.0018   2.4793   2.4814   3.0740   3.0793   5.1358

          k = 0.0625 0.5413 0.0000 ( 37791 PWs)   bands (ev):

   -61.8705 -61.8696 -48.2910 -48.2901 -48.2898 -48.2889 -48.2864 -48.2859
   -48.2852 -48.2847 -48.2476 -48.2464 -48.2464 -48.2459 -48.2455 -48.2452
   -48.2448 -48.2443 -48.2245 -48.2239 -48.2234 -48.2228 -36.1663 -36.1649
   -35.9687 -35.9673 -35.9549 -35.9540 -13.6551 -13.6516 -13.2028 -13.2003
    -6.8568  -6.8530  -5.5695  -5.5672  -4.7627  -4.7601  -3.8180  -3.8133
    -2.9907  -2.9889  -2.6742  -2.6728  -1.3266  -1.3245   0.6682   0.6703
     1.1308   1.1312   2.5766   2.5788   3.3183   3.3212   4.6470

          k = 0.1250 0.2165 0.0000 ( 37731 PWs)   bands (ev):

   -61.8858 -61.8849 -48.2909 -48.2904 -48.2897 -48.2893 -48.2892 -48.2888
   -48.2881 -48.2875 -48.2464 -48.2458 -48.2454 -48.2453 -48.2452 -48.2447
   -48.2443 -48.2441 -48.2260 -48.2253 -48.2248 -48.2242 -36.0042 -36.0028
   -35.9910 -35.9900 -35.9288 -35.9275 -14.6569 -14.6536 -14.1472 -14.1451
    -5.5826  -5.5796  -4.9154  -4.9107  -3.6937  -3.6892  -3.0090  -3.0069
    -2.8636  -2.8594  -1.9312  -1.9292  -1.3221  -1.3213   0.0534   0.0541
     0.3140   0.3156   2.1611   2.1717   2.1854   2.1871   4.0291

          k = 0.1250 0.2887 0.0000 ( 37723 PWs)   bands (ev):

   -61.8813 -61.8805 -48.2908 -48.2902 -48.2896 -48.2890 -48.2885 -48.2880
   -48.2873 -48.2868 -48.2467 -48.2459 -48.2456 -48.2455 -48.2454 -48.2448
   -48.2444 -48.2442 -48.2256 -48.2249 -48.2244 -48.2238 -36.0477 -36.0463
   -35.9807 -35.9797 -35.9448 -35.9435 -14.3344 -14.3313 -13.9799 -13.9776
    -5.2688  -5.2649  -5.0797  -5.0761  -4.4615  -4.4578  -3.4615  -3.4584
    -2.9532  -2.9496  -2.1990  -2.1977  -1.1956  -1.1944  -0.1593  -0.1586
     0.6069   0.6081   1.8738   1.8755   2.4721   2.4825   4.5019

          k = 0.1250 0.3608 0.0000 ( 37761 PWs)   bands (ev):

   -61.8768 -61.8760 -48.2907 -48.2901 -48.2895 -48.2888 -48.2878 -48.2873
   -48.2866 -48.2861 -48.2470 -48.2461 -48.2459 -48.2457 -48.2455 -48.2450
   -48.2446 -48.2443 -48.2251 -48.2245 -48.2240 -48.2234 -36.0906 -36.0892
   -35.9709 -35.9698 -35.9605 -35.9592 -13.9943 -13.9912 -13.7790 -13.7764
    -5.4717  -5.4674  -5.2614  -5.2580  -4.6655  -4.6625  -3.8495  -3.8462
    -3.0525  -3.0495  -2.6293  -2.6279  -1.0647  -1.0633  -0.1240  -0.1235
     0.8896   0.8905   1.7920   1.7935   2.7821   2.7913   5.0630

          k = 0.1250 0.4330 0.0000 ( 37768 PWs)   bands (ev):

   -61.8730 -61.8722 -48.2906 -48.2899 -48.2894 -48.2887 -48.2872 -48.2867
   -48.2860 -48.2854 -48.2473 -48.2464 -48.2461 -48.2458 -48.2455 -48.2452
   -48.2447 -48.2443 -48.2248 -48.2242 -48.2236 -48.2230 -36.1266 -36.1252
   -35.9759 -35.9745 -35.9606 -35.9596 -13.7443 -13.7411 -13.5159 -13.5132
    -6.0614  -6.0576  -5.5205  -5.5170  -4.3948  -4.3922  -4.0767  -4.0731
    -3.1641  -3.1615  -2.9779  -2.9762  -1.0326  -1.0314   0.1195   0.1201
     1.0799   1.0810   1.9019   1.9034   3.0632   3.0695   5.5189

          k = 0.1250 0.5052 0.0000 ( 37794 PWs)   bands (ev):

   -61.8705 -61.8696 -48.2906 -48.2898 -48.2894 -48.2886 -48.2868 -48.2863
   -48.2856 -48.2850 -48.2475 -48.2465 -48.2463 -48.2459 -48.2456 -48.2453
   -48.2447 -48.2444 -48.2246 -48.2239 -48.2234 -48.2228 -36.1505 -36.1491
   -35.9850 -35.9836 -35.9549 -35.9540 -13.6125 -13.6090 -13.2669 -13.2643
    -6.5646  -6.5609  -5.5537  -5.5508  -4.5675  -4.5649  -4.0284  -4.0246
    -3.2455  -3.2432  -3.0419  -3.0400  -1.0898  -1.0889   0.4573   0.4585
     1.1292   1.1303   2.0686   2.0702   3.2518   3.2553   5.2695

          k = 0.1250 0.5774 0.0000 ( 37780 PWs)   bands (ev):

   -61.8696 -61.8687 -48.2906 -48.2897 -48.2894 -48.2885 -48.2866 -48.2861
   -48.2854 -48.2849 -48.2475 -48.2466 -48.2463 -48.2459 -48.2456 -48.2454
   -48.2447 -48.2444 -48.2245 -48.2238 -48.2233 -48.2227 -36.1589 -36.1574
   -35.9882 -35.9868 -35.9529 -35.9519 -13.5688 -13.5652 -13.1676 -13.1650
    -6.7481  -6.7444  -5.5457  -5.5432  -4.6821  -4.6794  -4.0249  -4.0209
    -3.2747  -3.2725  -2.9965  -2.9946  -1.1289  -1.1280   0.6589   0.6606
     1.0808   1.0815   2.1516   2.1533   3.3171   3.3194   5.0242

          k = 0.1875 0.3248 0.0000 ( 37725 PWs)   bands (ev):

   -61.8772 -61.8763 -48.2906 -48.2899 -48.2894 -48.2887 -48.2880 -48.2875
   -48.2868 -48.2862 -48.2470 -48.2461 -48.2458 -48.2457 -48.2455 -48.2449
   -48.2446 -48.2443 -48.2252 -48.2246 -48.2240 -48.2234 -36.0811 -36.0797
   -35.9729 -35.9719 -35.9641 -35.9629 -14.0096 -14.0065 -13.8137 -13.8111
    -5.3394  -5.3350  -5.0928  -5.0891  -4.7545  -4.7517  -3.8525  -3.8500
    -3.3334  -3.3294  -2.5099  -2.5088  -0.8963  -0.8950  -0.3038  -0.3033
     0.8879   0.8888   1.6052   1.6060   2.7709   2.7811   5.0177

          k = 0.1875 0.3969 0.0000 ( 37753 PWs)   bands (ev):

   -61.8734 -61.8725 -48.2903 -48.2896 -48.2891 -48.2884 -48.2875 -48.2870
   -48.2863 -48.2858 -48.2472 -48.2463 -48.2460 -48.2459 -48.2456 -48.2451
   -48.2447 -48.2444 -48.2248 -48.2242 -48.2237 -48.2231 -36.1098 -36.1084
   -35.9882 -35.9868 -35.9614 -35.9605 -13.7067 -13.7036 -13.6162 -13.6135
    -5.6925  -5.6887  -5.4432  -5.4392  -4.3539  -4.3512  -4.2045  -4.2018
    -3.6591  -3.6556  -2.9087  -2.9075  -0.6899  -0.6890  -0.2358  -0.2355
     1.1093   1.1102   1.5246   1.5253   3.0652   3.0721   5.5842

          k = 0.1875 0.4691 0.0000 ( 37759 PWs)   bands (ev):

   -61.8705 -61.8696 -48.2901 -48.2893 -48.2889 -48.2881 -48.2872 -48.2867
   -48.2860 -48.2855 -48.2473 -48.2465 -48.2462 -48.2460 -48.2456 -48.2454
   -48.2448 -48.2444 -48.2246 -48.2239 -48.2234 -48.2228 -36.1307 -36.1293
   -36.0052 -36.0039 -35.9550 -35.9540 -13.5463 -13.5430 -13.3540 -13.3512
    -6.1768  -6.1731  -5.5104  -5.5069  -4.4264  -4.4235  -4.1178  -4.1150
    -3.8846  -3.8818  -3.1787  -3.1771  -0.7414  -0.7410   0.1060   0.1066
     1.1494   1.1505   1.6755   1.6764   3.2309   3.2346   5.7584

          k = 0.1875 0.5413 0.0000 ( 37793 PWs)   bands (ev):

   -61.8689 -61.8680 -48.2900 -48.2892 -48.2888 -48.2880 -48.2870 -48.2865
   -48.2858 -48.2853 -48.2474 -48.2467 -48.2462 -48.2460 -48.2456 -48.2455
   -48.2449 -48.2444 -48.2244 -48.2238 -48.2233 -48.2227 -36.1417 -36.1402
   -36.0149 -36.0135 -35.9514 -35.9504 -13.4687 -13.4652 -13.1845 -13.1817
    -6.4541  -6.4504  -5.5390  -5.5358  -4.5200  -4.5170  -4.1605  -4.1575
    -3.9594  -3.9571  -3.1999  -3.1981  -0.8293  -0.8290   0.4728   0.4736
     1.0019   1.0031   1.8863   1.8873   3.2274   3.2297   5.6509

          k = 0.2500 0.4330 0.0000 ( 37711 PWs)   bands (ev):

   -61.8705 -61.8696 -48.2898 -48.2891 -48.2886 -48.2878 -48.2874 -48.2869
   -48.2862 -48.2857 -48.2473 -48.2465 -48.2461 -48.2461 -48.2456 -48.2453
   -48.2449 -48.2444 -48.2245 -48.2239 -48.2234 -48.2228 -36.1203 -36.1189
   -36.0159 -36.0145 -35.9550 -35.9540 -13.4844 -13.4813 -13.4243 -13.4214
    -5.9562  -5.9526  -5.4789  -5.4750  -4.4080  -4.4055  -4.2479  -4.2447
    -4.0434  -4.0406  -3.2745  -3.2732  -0.3306  -0.3301  -0.3098  -0.3087
     1.1449   1.1457   1.5507   1.5513   3.2293   3.2330   5.9631

          k = 0.2500 0.5052 0.0000 ( 37776 PWs)   bands (ev):

   -61.8685 -61.8677 -48.2895 -48.2887 -48.2883 -48.2875 -48.2875 -48.2869
   -48.2863 -48.2857 -48.2473 -48.2467 -48.2462 -48.2461 -48.2455 -48.2455
   -48.2451 -48.2444 -48.2244 -48.2238 -48.2232 -48.2227 -36.1228 -36.1214
   -36.0389 -36.0375 -35.9505 -35.9496 -13.3748 -13.3715 -13.2373 -13.2344
    -6.1040  -6.1004  -5.5306  -5.5268  -4.6673  -4.6638  -4.3852  -4.3830
    -3.9696  -3.9673  -3.5123  -3.5107  -0.4329  -0.4328   0.0628   0.0633
     0.9650   0.9664   1.8423   1.8429   3.1575   3.1598   5.7866

          k = 0.2500 0.5774 0.0000 ( 37791 PWs)   bands (ev):

   -61.8679 -61.8670 -48.2893 -48.2885 -48.2881 -48.2875 -48.2873 -48.2870
   -48.2863 -48.2857 -48.2472 -48.2468 -48.2463 -48.2461 -48.2456 -48.2455
   -48.2451 -48.2444 -48.2243 -48.2237 -48.2232 -48.2226 -36.1223 -36.1208
   -36.0485 -36.0471 -35.9490 -35.9480 -13.3361 -13.3328 -13.1674 -13.1645
    -6.1469  -6.1433  -5.5608  -5.5571  -4.8203  -4.8168  -4.2055  -4.2033
    -4.1859  -4.1840  -3.5132  -3.5113  -0.4838  -0.4837   0.3215   0.3215
     0.7578   0.7597   2.0612   2.0620   3.0205   3.0224   5.6865

          k = 0.3125 0.5413 0.0000 ( 37789 PWs)   bands (ev):

   -61.8675 -61.8666 -48.2889 -48.2881 -48.2878 -48.2877 -48.2873 -48.2869
   -48.2866 -48.2861 -48.2471 -48.2469 -48.2465 -48.2459 -48.2457 -48.2455
   -48.2453 -48.2443 -48.2243 -48.2237 -48.2231 -48.2226 -36.1048 -36.1034
   -36.0710 -36.0695 -35.9481 -35.9472 -13.2567 -13.2534 -13.1948 -13.1918
    -5.8426  -5.8391  -5.5705  -5.5666  -5.2599  -5.2565  -4.2185  -4.2166
    -3.8804  -3.8784  -3.8780  -3.8770  -0.1464  -0.1458   0.0310   0.0312
     0.6581   0.6603   2.2691   2.2700   2.8334   2.8350   5.6183

     the Fermi energy is    -0.2954 ev

!    total energy              =   -2326.92183491 Ry
     total all-electron energy =    -35628.669664 Ry
     estimated scf accuracy    <          5.4E-09 Ry
     smearing contrib. (-TS)   =       0.00090265 Ry
     internal energy E=F+TS    =   -2326.92273756 Ry

     The total energy is F=E-TS. E is the sum of the following terms:
     one-electron contribution =  -18240.95019456 Ry
     hartree contribution      =    9108.70726139 Ry
     xc contribution           =    -152.42435244 Ry
     ewald contribution        =    7968.25895601 Ry
     one-center paw contrib.   =   -1010.51440795 Ry

     convergence has been achieved in  23 iterations

     Writing all to output data dir ./tmp/cleave_030/mose2_cleave_030.save/ :
     XML data file, charge density, pseudopotentials, collected wavefunctions

     init_run     :     11.72s CPU     11.93s WALL (       1 calls)
     electrons    :    453.57s CPU    461.03s WALL (       1 calls)

     Called by init_run:
     wfcinit      :      5.37s CPU      5.40s WALL (       1 calls)
     potinit      :      5.71s CPU      5.77s WALL (       1 calls)
     hinit0       :      0.05s CPU      0.06s WALL (       1 calls)

     Called by electrons:
     c_bands      :    379.28s CPU    380.75s WALL (      24 calls)
     sum_band     :     49.58s CPU     52.29s WALL (      24 calls)
     v_of_rho     :     14.72s CPU     15.58s WALL (      24 calls)
     newd         :      8.58s CPU     11.06s WALL (      24 calls)
     PAW_pot      :      1.46s CPU      1.51s WALL (      24 calls)
     mix_rho      :      5.79s CPU      5.81s WALL (      24 calls)
     vdW_kernel   :      5.27s CPU      5.28s WALL (       1 calls)

     Called by c_bands:
     init_us_2    :      3.61s CPU      3.63s WALL (    1470 calls)
     cegterg      :    372.62s CPU    374.03s WALL (     720 calls)

     Called by *egterg:
     cdiaghg      :     13.32s CPU     13.34s WALL (    3753 calls)
     h_psi        :    168.55s CPU    169.20s WALL (    3813 calls)
     s_psi        :     39.22s CPU     39.27s WALL (    3813 calls)
     g_psi        :      0.73s CPU      0.73s WALL (    3063 calls)

     Called by h_psi:
     h_psi:calbec :     47.71s CPU     47.89s WALL (    3813 calls)
     vloc_psi     :     71.00s CPU     71.41s WALL (    3813 calls)
                                        0.00s GPU  (    3813 calls)
     add_vuspsi   :     49.11s CPU     49.16s WALL (    3813 calls)

     General routines
     calbec       :     68.31s CPU     68.54s WALL (    4533 calls)
     fft          :      4.78s CPU      4.82s WALL (    1511 calls)
     ffts         :      2.00s CPU      2.01s WALL (    2754 calls)
     fftw         :     75.70s CPU     76.14s WALL (  217520 calls)
     interpolate  :      0.11s CPU      0.11s WALL (      24 calls)

     Parallel routines

     PWSCF        :   7m45.99s CPU   7m53.96s WALL


   This run was terminated on:  12:48:31  20Jun2026            

=------------------------------------------------------------------------------=
   JOB DONE.
=------------------------------------------------------------------------------=
Note: The following floating-point exceptions are signalling: IEEE_UNDERFLOW_FLAG IEEE_DENORMAL
Note: The following floating-point exceptions are signalling: IEEE_UNDERFLOW_FLAG IEEE_DENORMAL
Note: The following floating-point exceptions are signalling: IEEE_UNDERFLOW_FLAG IEEE_DENORMAL
Note: The following floating-point exceptions are signalling: IEEE_UNDERFLOW_FLAG IEEE_DENORMAL
Note: The following floating-point exceptions are signalling: IEEE_UNDERFLOW_FLAG IEEE_DENORMAL
Note: The following floating-point exceptions are signalling: IEEE_UNDERFLOW_FLAG IEEE_DENORMAL
Note: The following floating-point exceptions are signalling: IEEE_UNDERFLOW_FLAG IEEE_DENORMAL
Note: The following floating-point exceptions are signalling: IEEE_UNDERFLOW_FLAG IEEE_DENORMAL
Note: The following floating-point exceptions are signalling: IEEE_UNDERFLOW_FLAG IEEE_DENORMAL
Note: The following floating-point exceptions are signalling: IEEE_UNDERFLOW_FLAG IEEE_DENORMAL
Note: The following floating-point exceptions are signalling: IEEE_UNDERFLOW_FLAG IEEE_DENORMAL
Note: The following floating-point exceptions are signalling: IEEE_UNDERFLOW_FLAG IEEE_DENORMAL
Note: The following floating-point exceptions are signalling: IEEE_UNDERFLOW_FLAG IEEE_DENORMAL
Note: The following floating-point exceptions are signalling: IEEE_UNDERFLOW_FLAG IEEE_DENORMAL
Note: The following floating-point exceptions are signalling: IEEE_UNDERFLOW_FLAG IEEE_DENORMAL
Note: The following floating-point exceptions are signalling: IEEE_UNDERFLOW_FLAG IEEE_DENORMAL
Note: The following floating-point exceptions are signalling: IEEE_UNDERFLOW_FLAG IEEE_DENORMAL
Note: The following floating-point exceptions are signalling: IEEE_UNDERFLOW_FLAG IEEE_DENORMAL
Note: The following floating-point exceptions are signalling: IEEE_UNDERFLOW_FLAG IEEE_DENORMAL
Note: The following floating-point exceptions are signalling: IEEE_UNDERFLOW_FLAG IEEE_DENORMAL
Note: The following floating-point exceptions are signalling: IEEE_UNDERFLOW_FLAG IEEE_DENORMAL
Note: The following floating-point exceptions are signalling: IEEE_UNDERFLOW_FLAG IEEE_DENORMAL
Note: The following floating-point exceptions are signalling: IEEE_UNDERFLOW_FLAG IEEE_DENORMAL
Note: The following floating-point exceptions are signalling: IEEE_UNDERFLOW_FLAG IEEE_DENORMAL
