
     Program PWSCF v.7.5 starts on 20Jun2026 at 12:32: 6 

     This program is part of the open-source Quantum ESPRESSO suite
     for quantum simulation of materials; please cite
         "P. Giannozzi et al., J. Phys.:Condens. Matter 21 395502 (2009);
         "P. Giannozzi et al., J. Phys.:Condens. Matter 29 465901 (2017);
         "P. Giannozzi et al., J. Chem. Phys. 152 154105 (2020);
          URL http://www.quantum-espresso.org", 
     in publications or presentations arising from this work. More details at
     http://www.quantum-espresso.org/quote

     Parallel version (MPI), running on    24 processors

     MPI processes distributed on     1 nodes
     15919 MiB available memory on the printing compute node when the environment starts

     Waiting for input...
     Reading input from standard input

     Current dimensions of program PWSCF are:
     Max number of different atomic species (ntypx) = 10
     Max number of k-points (npk) =  40000
     Max angular momentum in pseudopotentials (lmaxx) =  4
     file Mo.pbe-spn-kjpaw_psl.1.0.0.UPF: wavefunction(s)  4S 4D renormalized
     file Se.pbe-dn-kjpaw_psl.1.0.0.UPF: wavefunction(s)  4S 4P 3D renormalized

     IMPORTANT: XC functional enforced from input :
     Exchange-correlation= VDW-DF2-B86R
                           (   1   4  26   0   2   0   0)
     Any further DFT definition will be discarded
     Please, verify this is what you really want


     R & G space division:  proc/nbgrp/npool/nimage =      24
     Subspace diagonalization in iterative solution of the eigenvalue problem:
     a serial algorithm will be used


     Parallelization info
     --------------------
     sticks:   dense  smooth     PW     G-vecs:    dense   smooth      PW
     Min          69      35     10                35537    12585    1924
     Max          70      36     11                35620    12648    1981
     Sum        1675     847    241               853823   302525   46513

     Using Slab Decomposition



     bravais-lattice index     =            4
     lattice parameter (alat)  =       6.1794  a.u.
     unit-cell volume          =    3124.5879 (a.u.)^3
     number of atoms/cell      =            6
     number of atomic types    =            2
     number of electrons       =        92.00
     number of Kohn-Sham states=           55
     kinetic-energy cutoff     =      80.0000  Ry
     charge density cutoff     =     640.0000  Ry
     scf convergence threshold =      1.0E-08
     mixing beta               =       0.3000
     number of iterations used =            8  local-TF  mixing
     Exchange-correlation= VDW-DF2-B86R
                           (   1   4  26   0   2   0   0)

     celldm(1)=   6.179404  celldm(2)=   0.000000  celldm(3)=  15.290520
     celldm(4)=   0.000000  celldm(5)=   0.000000  celldm(6)=   0.000000

     crystal axes: (cart. coord. in units of alat)
               a(1) = (   1.000000   0.000000   0.000000 )  
               a(2) = (  -0.500000   0.866025   0.000000 )  
               a(3) = (   0.000000   0.000000  15.290520 )  

     reciprocal axes: (cart. coord. in units 2 pi/alat)
               b(1) = (  1.000000  0.577350 -0.000000 )  
               b(2) = (  0.000000  1.154701  0.000000 )  
               b(3) = (  0.000000 -0.000000  0.065400 )  


     PseudoPot. # 1 for Mo read from file:
     ./pseudo/Mo.pbe-spn-kjpaw_psl.1.0.0.UPF
     MD5 check sum: 4396e0c640fcce5c25f020efccf1ab12
     Pseudo is Projector augmented-wave + core cor, Zval = 14.0
     Generated using &quot;atomic&quot; code by A. Dal Corso  v.6.3
     Shape of augmentation charge: PSQ
     Using radial grid of 1229 points,  6 beta functions with: 
                l(1) =   0
                l(2) =   0
                l(3) =   1
                l(4) =   1
                l(5) =   2
                l(6) =   2
     Q(r) pseudized with 0 coefficients 


     PseudoPot. # 2 for Se read from file:
     ./pseudo/Se.pbe-dn-kjpaw_psl.1.0.0.UPF
     MD5 check sum: ac240dd2bae32a30e0bf3a38df9c8785
     Pseudo is Projector augmented-wave + core cor, Zval = 16.0
     Generated using &quot;atomic&quot; code by A. Dal Corso  v.6.3
     Shape of augmentation charge: PSQ
     Using radial grid of 1211 points,  6 beta functions with: 
                l(1) =   0
                l(2) =   0
                l(3) =   1
                l(4) =   1
                l(5) =   2
                l(6) =   2
     Q(r) pseudized with 0 coefficients 


     atomic species   valence    mass     pseudopotential
     Mo               14.00    95.96000     Mo( 1.00)
     Se               16.00    78.96000     Se( 1.00)

      6 Sym. Ops. (no inversion) found



   Cartesian axes

     site n.     atom                  positions (alat units)
         1        Se     tau(   1) = (  -0.0000005   0.5773506   6.1238532  )
         2        Mo     tau(   2) = (   0.0000000   0.0000000   6.6502752  )
         3        Se     tau(   3) = (   0.5000005   0.2886748   7.1775994  )
         4        Se     tau(   4) = (  -0.0000005   0.5773506   9.8860398  )
         5        Mo     tau(   5) = (   0.5000005   0.2886748  10.4132263  )
         6        Se     tau(   6) = (   0.0000000   0.0000000  10.9403670  )

     number of k points=    30  Methfessel-Paxton smearing, width (Ry)=  0.0200
                       cart. coord. in units 2pi/alat
        k(    1) = (   0.0000000   0.0000000   0.0000000), wk =   0.0078125
        k(    2) = (   0.0000000   0.0721688   0.0000000), wk =   0.0468750
        k(    3) = (   0.0000000   0.1443376   0.0000000), wk =   0.0468750
        k(    4) = (   0.0000000   0.2165064   0.0000000), wk =   0.0468750
        k(    5) = (   0.0000000   0.2886751   0.0000000), wk =   0.0468750
        k(    6) = (   0.0000000   0.3608439   0.0000000), wk =   0.0468750
        k(    7) = (   0.0000000   0.4330127   0.0000000), wk =   0.0468750
        k(    8) = (   0.0000000   0.5051815   0.0000000), wk =   0.0468750
        k(    9) = (   0.0000000  -0.5773503   0.0000000), wk =   0.0234375
        k(   10) = (   0.0625000   0.1082532   0.0000000), wk =   0.0468750
        k(   11) = (   0.0625000   0.1804220   0.0000000), wk =   0.0937500
        k(   12) = (   0.0625000   0.2525907   0.0000000), wk =   0.0937500
        k(   13) = (   0.0625000   0.3247595   0.0000000), wk =   0.0937500
        k(   14) = (   0.0625000   0.3969283   0.0000000), wk =   0.0937500
        k(   15) = (   0.0625000   0.4690971   0.0000000), wk =   0.0937500
        k(   16) = (   0.0625000   0.5412659   0.0000000), wk =   0.0937500
        k(   17) = (   0.1250000   0.2165064   0.0000000), wk =   0.0468750
        k(   18) = (   0.1250000   0.2886751   0.0000000), wk =   0.0937500
        k(   19) = (   0.1250000   0.3608439   0.0000000), wk =   0.0937500
        k(   20) = (   0.1250000   0.4330127   0.0000000), wk =   0.0937500
        k(   21) = (   0.1250000   0.5051815   0.0000000), wk =   0.0937500
        k(   22) = (   0.1250000   0.5773503   0.0000000), wk =   0.0468750
        k(   23) = (   0.1875000   0.3247595   0.0000000), wk =   0.0468750
        k(   24) = (   0.1875000   0.3969283   0.0000000), wk =   0.0937500
        k(   25) = (   0.1875000   0.4690971   0.0000000), wk =   0.0937500
        k(   26) = (   0.1875000   0.5412659   0.0000000), wk =   0.0937500
        k(   27) = (   0.2500000   0.4330127   0.0000000), wk =   0.0468750
        k(   28) = (   0.2500000   0.5051815   0.0000000), wk =   0.0937500
        k(   29) = (   0.2500000   0.5773503   0.0000000), wk =   0.0468750
        k(   30) = (   0.3125000   0.5412659   0.0000000), wk =   0.0468750

     Dense  grid:   853823 G-vectors     FFT dimensions: (  50,  50, 768)

     Smooth grid:   302525 G-vectors     FFT dimensions: (  36,  36, 540)

     Estimated max dynamical RAM per process >     171.88 MB

     Estimated total dynamical RAM >       4.03 GB

     Initial potential from superposition of free atoms

     starting charge      91.9979, renormalised to      92.0000

     negative rho (up, down):  1.680E-04 0.000E+00


     %%%%%%%%%%%%%%%%%%%%%%%%%%%%%%%%%%%%%%%%%%%%%%%%%%%%%%%%%%%%%%%%%%%%%%%%
     %                                                                      %
     % You are using vdW-DF, which was implemented by the Thonhauser group. %
     % Please cite the following two papers that made this development      %
     % possible and the two reviews that describe the various versions:     %
     %                                                                      %
     %   T. Thonhauser et al., PRL 115, 136402 (2015).                      %
     %   T. Thonhauser et al., PRB 76, 125112 (2007).                       %
     %   K. Berland et al., Rep. Prog. Phys. 78, 066501 (2015).             %
     %   D.C. Langreth et al., J. Phys.: Condens. Matter 21, 084203 (2009). %
     %                                                                      %
     % If you are calculating stress with vdW-DF, please also cite:         %
     %                                                                      %
     %   R. Sabatini et al., J. Phys.: Condens. Matter 24, 424209 (2012).   %
     %                                                                      %
     %%%%%%%%%%%%%%%%%%%%%%%%%%%%%%%%%%%%%%%%%%%%%%%%%%%%%%%%%%%%%%%%%%%%%%%%

     %%%%%%%%%%%%%%%%%%%%%%%%%%%%%%%%%%%%%%%%%%%%%%%%%%%%%%%%%%%%%%%%%%%%%%%%
     %                                                                      %
     %  vdW-DF NEWS:                                                        %
     %                                                                      %
     %  * vdW-DF3 is now available. DOI: 10.1021/acs.jctc.0c00471           %
     %    use with input_dft = 'vdW-DF3-opt1' or 'vdW-DF3-opt2'             %
     %                                                                      %
     %  * Unscreened and range-separated hybrid vdW-DF-cx functionals       %
     %    DOI: 10.1063/1.4986522 and 10.1088/1361-648X/ac2ad2               %
     %    use with input_dft = 'vdW-DF-cx0'    and 'vdW-DF-ahcx'            %
     %  * Unscreened and range-separated hybrid vdW-DF2-b86r functionals    %
     %    DOI: 10.1063/1.4986522 and DOI: 10.1103/PhysRevX.12.041003        %
     %    use with input_dft = 'vdW-DF2-br0' and 'vdW-DF2-ahbr'             %
     %                                                                      %
     %%%%%%%%%%%%%%%%%%%%%%%%%%%%%%%%%%%%%%%%%%%%%%%%%%%%%%%%%%%%%%%%%%%%%%%%


     Starting wfcs are   56 randomized atomic wfcs
     Checking if some PAW data can be deallocated... 

     total cpu time spent up to now is       11.9 secs

     per-process dynamical memory:    79.7 Mb

     Self-consistent Calculation

     iteration #  1     ecut=    80.00 Ry     beta= 0.30
     Davidson diagonalization with overlap
     ethr =  1.00E-02,  avg # of iterations =  4.4

     Threshold (ethr) on eigenvalues was too large:
     Diagonalizing with lowered threshold

     Davidson diagonalization with overlap
     ethr =  4.49E-04,  avg # of iterations =  2.0

     negative rho (up, down):  4.073E-05 0.000E+00

     total cpu time spent up to now is       50.3 secs

     total energy              =   -2326.96264175 Ry
     estimated scf accuracy    <       0.46078981 Ry

     iteration #  2     ecut=    80.00 Ry     beta= 0.30
     Davidson diagonalization with overlap
     ethr =  5.01E-04,  avg # of iterations =  1.5

     negative rho (up, down):  2.716E-05 0.000E+00

     total cpu time spent up to now is       66.3 secs

     total energy              =   -2326.91576782 Ry
     estimated scf accuracy    <       0.24329412 Ry

     iteration #  3     ecut=    80.00 Ry     beta= 0.30
     Davidson diagonalization with overlap
     ethr =  2.64E-04,  avg # of iterations =  5.2

     negative rho (up, down):  8.402E-06 0.000E+00

     total cpu time spent up to now is       85.3 secs

     total energy              =   -2326.92273199 Ry
     estimated scf accuracy    <       0.03144188 Ry

     iteration #  4     ecut=    80.00 Ry     beta= 0.30
     Davidson diagonalization with overlap
     ethr =  3.42E-05,  avg # of iterations =  6.6

     negative rho (up, down):  3.263E-06 0.000E+00

     total cpu time spent up to now is      106.1 secs

     total energy              =   -2326.92288611 Ry
     estimated scf accuracy    <       0.01005575 Ry

     iteration #  5     ecut=    80.00 Ry     beta= 0.30
     Davidson diagonalization with overlap
     c_bands:  1 eigenvalues not converged
     ethr =  1.09E-05,  avg # of iterations =  4.8

     negative rho (up, down):  6.688E-07 0.000E+00

     total cpu time spent up to now is      126.3 secs

     total energy              =   -2326.92214310 Ry
     estimated scf accuracy    <       0.00407166 Ry

     iteration #  6     ecut=    80.00 Ry     beta= 0.30
     Davidson diagonalization with overlap
     c_bands:  1 eigenvalues not converged
     c_bands:  1 eigenvalues not converged
     ethr =  4.43E-06,  avg # of iterations =  6.3

     negative rho (up, down):  2.846E-07 0.000E+00

     total cpu time spent up to now is      147.8 secs

     total energy              =   -2326.92209189 Ry
     estimated scf accuracy    <       0.00142104 Ry

     iteration #  7     ecut=    80.00 Ry     beta= 0.30
     Davidson diagonalization with overlap
     c_bands:  1 eigenvalues not converged
     ethr =  1.54E-06,  avg # of iterations =  5.9

     negative rho (up, down):  2.078E-07 0.000E+00

     total cpu time spent up to now is      166.8 secs

     total energy              =   -2326.92194377 Ry
     estimated scf accuracy    <       0.00120053 Ry

     iteration #  8     ecut=    80.00 Ry     beta= 0.30
     Davidson diagonalization with overlap
     ethr =  1.30E-06,  avg # of iterations =  3.4

     negative rho (up, down):  9.791E-08 0.000E+00

     total cpu time spent up to now is      187.0 secs

     total energy              =   -2326.92195394 Ry
     estimated scf accuracy    <       0.00072598 Ry

     iteration #  9     ecut=    80.00 Ry     beta= 0.30
     Davidson diagonalization with overlap
     ethr =  7.89E-07,  avg # of iterations =  2.9

     negative rho (up, down):  1.983E-03 0.000E+00

     total cpu time spent up to now is      204.6 secs

     total energy              =   -2326.92198171 Ry
     estimated scf accuracy    <       0.00057691 Ry

     iteration # 10     ecut=    80.00 Ry     beta= 0.30
     Davidson diagonalization with overlap
     ethr =  6.27E-07,  avg # of iterations =  5.3

     negative rho (up, down):  3.407E-03 0.000E+00

     total cpu time spent up to now is      222.5 secs

     total energy              =   -2326.92198327 Ry
     estimated scf accuracy    <       0.00048549 Ry

     iteration # 11     ecut=    80.00 Ry     beta= 0.30
     Davidson diagonalization with overlap
     ethr =  5.28E-07,  avg # of iterations =  1.6

     negative rho (up, down):  3.774E-03 0.000E+00

     total cpu time spent up to now is      239.4 secs

     total energy              =   -2326.92186137 Ry
     estimated scf accuracy    <       0.00042457 Ry

     iteration # 12     ecut=    80.00 Ry     beta= 0.30
     Davidson diagonalization with overlap
     ethr =  4.61E-07,  avg # of iterations =  5.4

     negative rho (up, down):  6.024E-03 0.000E+00

     total cpu time spent up to now is      258.0 secs

     total energy              =   -2326.92182679 Ry
     estimated scf accuracy    <       0.00026290 Ry

     iteration # 13     ecut=    80.00 Ry     beta= 0.30
     Davidson diagonalization with overlap
     ethr =  2.86E-07,  avg # of iterations =  4.1

     negative rho (up, down):  4.652E-03 0.000E+00

     total cpu time spent up to now is      276.0 secs

     total energy              =   -2326.92171897 Ry
     estimated scf accuracy    <       0.00018344 Ry

     iteration # 14     ecut=    80.00 Ry     beta= 0.30
     Davidson diagonalization with overlap
     c_bands:  1 eigenvalues not converged
     ethr =  1.99E-07,  avg # of iterations =  7.5

     negative rho (up, down):  3.796E-03 0.000E+00

     total cpu time spent up to now is      298.4 secs

     total energy              =   -2326.92175035 Ry
     estimated scf accuracy    <       0.00006759 Ry

     iteration # 15     ecut=    80.00 Ry     beta= 0.30
     Davidson diagonalization with overlap
     ethr =  7.35E-08,  avg # of iterations =  1.8

     negative rho (up, down):  2.285E-03 0.000E+00

     total cpu time spent up to now is      315.7 secs

     total energy              =   -2326.92182300 Ry
     estimated scf accuracy    <       0.00003536 Ry

     iteration # 16     ecut=    80.00 Ry     beta= 0.30
     Davidson diagonalization with overlap
     ethr =  3.84E-08,  avg # of iterations =  5.1

     negative rho (up, down):  1.306E-03 0.000E+00

     total cpu time spent up to now is      337.0 secs

     total energy              =   -2326.92185540 Ry
     estimated scf accuracy    <       0.00002113 Ry

     iteration # 17     ecut=    80.00 Ry     beta= 0.30
     Davidson diagonalization with overlap
     ethr =  2.30E-08,  avg # of iterations =  2.6

     negative rho (up, down):  1.011E-03 0.000E+00

     total cpu time spent up to now is      355.4 secs

     total energy              =   -2326.92186056 Ry
     estimated scf accuracy    <       0.00001091 Ry

     iteration # 18     ecut=    80.00 Ry     beta= 0.30
     Davidson diagonalization with overlap
     ethr =  1.19E-08,  avg # of iterations =  7.7

     negative rho (up, down):  9.914E-04 0.000E+00

     total cpu time spent up to now is      375.0 secs

     total energy              =   -2326.92186252 Ry
     estimated scf accuracy    <       0.00000617 Ry

     iteration # 19     ecut=    80.00 Ry     beta= 0.30
     Davidson diagonalization with overlap
     ethr =  6.70E-09,  avg # of iterations =  2.0

     negative rho (up, down):  1.018E-03 0.000E+00

     total cpu time spent up to now is      396.6 secs

     total energy              =   -2326.92186569 Ry
     estimated scf accuracy    <       0.00000300 Ry

     iteration # 20     ecut=    80.00 Ry     beta= 0.30
     Davidson diagonalization with overlap
     ethr =  3.26E-09,  avg # of iterations =  1.6

     negative rho (up, down):  7.108E-04 0.000E+00

     total cpu time spent up to now is      413.3 secs

     total energy              =   -2326.92186846 Ry
     estimated scf accuracy    <       0.00000150 Ry

     iteration # 21     ecut=    80.00 Ry     beta= 0.30
     Davidson diagonalization with overlap
     ethr =  1.63E-09,  avg # of iterations =  2.2

     negative rho (up, down):  2.734E-04 0.000E+00

     total cpu time spent up to now is      431.9 secs

     total energy              =   -2326.92187040 Ry
     estimated scf accuracy    <       0.00000076 Ry

     iteration # 22     ecut=    80.00 Ry     beta= 0.30
     Davidson diagonalization with overlap
     ethr =  8.30E-10,  avg # of iterations =  3.9

     negative rho (up, down):  1.696E-04 0.000E+00

     total cpu time spent up to now is      450.8 secs

     total energy              =   -2326.92187176 Ry
     estimated scf accuracy    <       0.00000019 Ry

     iteration # 23     ecut=    80.00 Ry     beta= 0.30
     Davidson diagonalization with overlap
     ethr =  2.11E-10,  avg # of iterations =  2.2

     negative rho (up, down):  1.876E-04 0.000E+00

     total cpu time spent up to now is      469.1 secs

     total energy              =   -2326.92187254 Ry
     estimated scf accuracy    <       0.00000009 Ry

     iteration # 24     ecut=    80.00 Ry     beta= 0.30
     Davidson diagonalization with overlap
     ethr =  9.27E-11,  avg # of iterations =  2.4

     negative rho (up, down):  1.934E-04 0.000E+00

     total cpu time spent up to now is      490.4 secs

     total energy              =   -2326.92187265 Ry
     estimated scf accuracy    <       0.00000001 Ry

     iteration # 25     ecut=    80.00 Ry     beta= 0.30
     Davidson diagonalization with overlap
     ethr =  1.52E-11,  avg # of iterations =  2.2

     negative rho (up, down):  1.983E-04 0.000E+00

     total cpu time spent up to now is      509.6 secs

     End of self-consistent calculation

          k = 0.0000 0.0000 0.0000 ( 37787 PWs)   bands (ev):

   -61.8963 -61.8954 -48.2911 -48.2911 -48.2907 -48.2907 -48.2897 -48.2897
   -48.2894 -48.2894 -48.2455 -48.2455 -48.2452 -48.2452 -48.2441 -48.2441
   -48.2439 -48.2439 -48.2269 -48.2264 -48.2255 -48.2252 -36.0147 -36.0136
   -35.8994 -35.8994 -35.8981 -35.8981 -15.2943 -15.2908 -14.4761 -14.4746
    -6.4374  -6.4344  -3.3608  -3.3608  -3.3547  -3.3547  -3.3370  -3.3356
    -1.5908  -1.5884  -1.0645  -1.0644  -1.0616  -1.0615   0.2288   0.2289
     0.2317   0.2317   2.9474   2.9474   2.9495   2.9495   3.0506

          k = 0.0000 0.0722 0.0000 ( 37755 PWs)   bands (ev):

   -61.8953 -61.8944 -48.2911 -48.2909 -48.2907 -48.2905 -48.2896 -48.2895
   -48.2893 -48.2892 -48.2456 -48.2456 -48.2452 -48.2452 -48.2442 -48.2442
   -48.2439 -48.2439 -48.2268 -48.2263 -48.2254 -48.2251 -36.0125 -36.0114
   -35.9100 -35.9087 -35.9018 -35.9005 -15.2375 -15.2340 -14.4466 -14.4450
    -6.3596  -6.3566  -3.8333  -3.8294  -3.3288  -3.3227  -2.9334  -2.9311
    -1.6287  -1.6270  -1.2542  -1.2513  -1.2114  -1.2083   0.1211   0.1234
     0.3419   0.3444   2.6205   2.6312   2.8987   2.9008   3.1604

          k = 0.0000 0.1443 0.0000 ( 37697 PWs)   bands (ev):

   -61.8926 -61.8917 -48.2910 -48.2907 -48.2904 -48.2900 -48.2896 -48.2893
   -48.2889 -48.2886 -48.2458 -48.2457 -48.2453 -48.2452 -48.2444 -48.2443
   -48.2440 -48.2439 -48.2265 -48.2260 -48.2252 -48.2248 -36.0061 -36.0050
   -35.9401 -35.9388 -35.9088 -35.9074 -15.0711 -15.0677 -14.3604 -14.3587
    -6.1344  -6.1313  -4.3191  -4.3147  -3.2535  -3.2474  -2.7140  -2.7123
    -2.0775  -2.0752  -1.4990  -1.4955  -1.4562  -1.4549   0.0023   0.0044
     0.5324   0.5343   2.0274   2.0378   2.7990   2.8009   3.4169

          k = 0.0000 0.2165 0.0000 ( 37653 PWs)   bands (ev):

   -61.8884 -61.8875 -48.2910 -48.2907 -48.2896 -48.2896 -48.2893 -48.2892
   -48.2881 -48.2878 -48.2462 -48.2458 -48.2455 -48.2453 -48.2448 -48.2444
   -48.2442 -48.2440 -48.2262 -48.2256 -48.2248 -48.2244 -35.9969 -35.9958
   -35.9846 -35.9832 -35.9191 -35.9178 -14.8082 -14.8049 -14.2241 -14.2221
    -5.7937  -5.7907  -4.7485  -4.7440  -3.2579  -3.2548  -3.2019  -3.1959
    -2.4350  -2.4340  -1.7227  -1.7189  -1.5569  -1.5561  -0.0289  -0.0270
     0.6389   0.6402   1.6658   1.6763   2.7336   2.7353   3.7884

          k = 0.0000 0.2887 0.0000 ( 37721 PWs)   bands (ev):

   -61.8836 -61.8827 -48.2910 -48.2907 -48.2896 -48.2893 -48.2887 -48.2883
   -48.2872 -48.2869 -48.2466 -48.2460 -48.2457 -48.2453 -48.2452 -48.2446
   -48.2444 -48.2440 -48.2257 -48.2252 -48.2243 -48.2240 -36.0376 -36.0362
   -35.9850 -35.9839 -35.9313 -35.9300 -14.4750 -14.4718 -14.0462 -14.0440
    -5.4823  -5.4787  -4.9884  -4.9844  -4.2799  -4.2765  -3.2563  -3.2506
    -2.6204  -2.6200  -1.8098  -1.8091  -1.7662  -1.7622   0.0525   0.0543
     0.6439   0.6450   1.7721   1.7834   2.7348   2.7366   4.2663

          k = 0.0000 0.3608 0.0000 ( 37749 PWs)   bands (ev):

   -61.8787 -61.8778 -48.2911 -48.2906 -48.2896 -48.2892 -48.2878 -48.2874
   -48.2863 -48.2860 -48.2470 -48.2461 -48.2459 -48.2456 -48.2454 -48.2447
   -48.2445 -48.2441 -48.2253 -48.2247 -48.2239 -48.2235 -36.0896 -36.0882
   -35.9736 -35.9726 -35.9435 -35.9421 -14.1267 -14.1235 -13.8268 -13.8243
    -5.5991  -5.5948  -5.2373  -5.2341  -4.7243  -4.7211  -3.4048  -3.3994
    -2.9805  -2.9803  -2.0751  -2.0744  -1.6610  -1.6570   0.3122   0.3135
     0.6208   0.6221   2.1910   2.2022   2.7713   2.7734   4.8238

          k = 0.0000 0.4330 0.0000 ( 37785 PWs)   bands (ev):

   -61.8746 -61.8737 -48.2911 -48.2905 -48.2897 -48.2891 -48.2870 -48.2867
   -48.2855 -48.2853 -48.2473 -48.2462 -48.2460 -48.2460 -48.2455 -48.2448
   -48.2447 -48.2441 -48.2249 -48.2244 -48.2235 -48.2231 -36.1333 -36.1319
   -35.9640 -35.9630 -35.9538 -35.9524 -13.8628 -13.8595 -13.5479 -13.5453
    -6.1995  -6.1957  -5.5771  -5.5739  -4.5345  -4.5320  -3.5640  -3.5587
    -3.2348  -3.2341  -2.2485  -2.2479  -1.5273  -1.5237   0.6354   0.6371
     0.6774   0.6781   2.7078   2.7169   2.8078   2.8101   5.1386

          k = 0.0000 0.5052 0.0000 ( 37822 PWs)   bands (ev):

   -61.8719 -61.8710 -48.2912 -48.2904 -48.2897 -48.2890 -48.2865 -48.2862
   -48.2850 -48.2848 -48.2476 -48.2463 -48.2462 -48.2461 -48.2455 -48.2449
   -48.2448 -48.2442 -48.2246 -48.2241 -48.2232 -48.2229 -36.1624 -36.1609
   -35.9606 -35.9593 -35.9576 -35.9566 -13.7176 -13.7141 -13.2860 -13.2835
    -6.7571  -6.7533  -5.5984  -5.5959  -4.7016  -4.6992  -3.6761  -3.6708
    -3.1148  -3.1134  -2.3767  -2.3761  -1.4401  -1.4368   0.6845   0.6868
     1.0188   1.0192   2.8303   2.8328   3.1569   3.1622   4.6741

          k = 0.0000-0.5774 0.0000 ( 37832 PWs)   bands (ev):

   -61.8709 -61.8700 -48.2912 -48.2904 -48.2898 -48.2890 -48.2863 -48.2860
   -48.2849 -48.2846 -48.2477 -48.2463 -48.2463 -48.2461 -48.2455 -48.2449
   -48.2448 -48.2442 -48.2245 -48.2240 -48.2231 -48.2228 -36.1726 -36.1711
   -35.9630 -35.9617 -35.9553 -35.9543 -13.6701 -13.6665 -13.1794 -13.1769
    -6.9623  -6.9585  -5.5688  -5.5668  -4.8444  -4.8418  -3.7157  -3.7105
    -2.9862  -2.9846  -2.4451  -2.4446  -1.4124  -1.4093   0.7121   0.7145
     1.1658   1.1659   2.8376   2.8402   3.3784   3.3810   4.3493

          k = 0.0625 0.1083 0.0000 ( 37709 PWs)   bands (ev):

   -61.8934 -61.8925 -48.2910 -48.2907 -48.2906 -48.2902 -48.2896 -48.2893
   -48.2891 -48.2888 -48.2458 -48.2456 -48.2453 -48.2452 -48.2444 -48.2442
   -48.2440 -48.2439 -48.2266 -48.2261 -48.2252 -48.2249 -36.0082 -36.0071
   -35.9301 -35.9287 -35.9068 -35.9055 -15.1259 -15.1225 -14.3888 -14.3871
    -6.2077  -6.2047  -4.1902  -4.1859  -3.2823  -3.2762  -2.7344  -2.7326
    -1.8766  -1.8750  -1.4991  -1.4958  -1.3808  -1.3793   0.0629   0.0650
     0.4322   0.4341   2.2547   2.2658   2.7546   2.7569   3.3393

          k = 0.0625 0.1804 0.0000 ( 37703 PWs)   bands (ev):

   -61.8900 -61.8891 -48.2910 -48.2907 -48.2899 -48.2896 -48.2895 -48.2893
   -48.2885 -48.2882 -48.2461 -48.2457 -48.2454 -48.2453 -48.2447 -48.2443
   -48.2441 -48.2440 -48.2263 -48.2258 -48.2249 -48.2246 -36.0002 -35.9992
   -35.9667 -35.9653 -35.9163 -35.9149 -14.9108 -14.9074 -14.2777 -14.2758
    -5.9197  -5.9167  -4.6039  -4.5993  -3.2767  -3.2709  -2.8110  -2.8088
    -2.4537  -2.4515  -1.7538  -1.7508  -1.4127  -1.4116   0.0622   0.0641
     0.4328   0.4340   1.9351   1.9457   2.5808   2.5828   3.6487

          k = 0.0625 0.2526 0.0000 ( 37702 PWs)   bands (ev):

   -61.8855 -61.8846 -48.2910 -48.2906 -48.2895 -48.2892 -48.2891 -48.2887
   -48.2876 -48.2874 -48.2464 -48.2459 -48.2456 -48.2454 -48.2450 -48.2445
   -48.2443 -48.2440 -48.2259 -48.2254 -48.2245 -48.2241 -36.0144 -36.0130
   -35.9896 -35.9885 -35.9287 -35.9273 -14.6107 -14.6074 -14.1216 -14.1195
    -5.5522  -5.5491  -4.9481  -4.9436  -3.8357  -3.8320  -3.2225  -3.2177
    -2.5995  -2.5979  -1.9638  -1.9614  -1.4440  -1.4427  -0.0017  -0.0002
     0.5126   0.5139   1.8279   1.8374   2.5515   2.5547   4.0721

          k = 0.0625 0.3248 0.0000 ( 37734 PWs)   bands (ev):

   -61.8807 -61.8798 -48.2910 -48.2905 -48.2895 -48.2891 -48.2882 -48.2879
   -48.2868 -48.2865 -48.2468 -48.2460 -48.2458 -48.2454 -48.2454 -48.2446
   -48.2444 -48.2441 -48.2254 -48.2249 -48.2241 -48.2237 -36.0653 -36.0639
   -35.9783 -35.9773 -35.9421 -35.9407 -14.2623 -14.2591 -13.9281 -13.9257
    -5.4452  -5.4411  -4.9242  -4.9212  -4.7800  -4.7763  -3.4619  -3.4575
    -2.7250  -2.7238  -2.2788  -2.2766  -1.4338  -1.4317   0.0491   0.0502
     0.6614   0.6624   1.9650   1.9729   2.6436   2.6487   4.5964

          k = 0.0625 0.3969 0.0000 ( 37770 PWs)   bands (ev):

   -61.8762 -61.8753 -48.2910 -48.2904 -48.2895 -48.2890 -48.2874 -48.2871
   -48.2859 -48.2857 -48.2472 -48.2462 -48.2459 -48.2458 -48.2455 -48.2448
   -48.2446 -48.2442 -48.2250 -48.2245 -48.2236 -48.2233 -36.1121 -36.1106
   -35.9679 -35.9669 -35.9543 -35.9530 -13.9461 -13.9429 -13.6839 -13.6813
    -5.8153  -5.8113  -5.4810  -5.4777  -4.5587  -4.5559  -3.7070  -3.7029
    -2.9891  -2.9877  -2.4969  -2.4949  -1.3659  -1.3635   0.2462   0.2469
     0.8184   0.8194   2.2533   2.2577   2.8154   2.8223   5.1536

          k = 0.0625 0.4691 0.0000 ( 37798 PWs)   bands (ev):

   -61.8727 -61.8719 -48.2910 -48.2903 -48.2896 -48.2889 -48.2868 -48.2864
   -48.2853 -48.2851 -48.2475 -48.2464 -48.2461 -48.2460 -48.2455 -48.2450
   -48.2446 -48.2442 -48.2247 -48.2242 -48.2233 -48.2230 -36.1476 -36.1461
   -35.9642 -35.9628 -35.9595 -35.9584 -13.7487 -13.7452 -13.3983 -13.3957
    -6.4703  -6.4665  -5.5874  -5.5845  -4.5531  -4.5508  -3.8008  -3.7964
    -3.1041  -3.1024  -2.6022  -2.6006  -1.3259  -1.3236   0.4878   0.4891
     1.0006   1.0015   2.4789   2.4811   3.0731   3.0793   5.1324

          k = 0.0625 0.5413 0.0000 ( 37791 PWs)   bands (ev):

   -61.8709 -61.8700 -48.2910 -48.2903 -48.2896 -48.2889 -48.2864 -48.2861
   -48.2850 -48.2847 -48.2476 -48.2464 -48.2462 -48.2460 -48.2456 -48.2451
   -48.2447 -48.2442 -48.2245 -48.2240 -48.2231 -48.2228 -36.1667 -36.1652
   -35.9691 -35.9677 -35.9553 -35.9543 -13.6555 -13.6519 -13.2031 -13.2006
    -6.8571  -6.8533  -5.5698  -5.5676  -4.7630  -4.7605  -3.8184  -3.8136
    -2.9910  -2.9892  -2.6745  -2.6732  -1.3270  -1.3248   0.6678   0.6699
     1.1304   1.1308   2.5763   2.5785   3.3178   3.3210   4.6464

          k = 0.1250 0.2165 0.0000 ( 37731 PWs)   bands (ev):

   -61.8862 -61.8853 -48.2909 -48.2906 -48.2895 -48.2893 -48.2892 -48.2889
   -48.2878 -48.2876 -48.2464 -48.2458 -48.2455 -48.2454 -48.2450 -48.2444
   -48.2442 -48.2441 -48.2260 -48.2254 -48.2246 -48.2242 -36.0045 -36.0032
   -35.9914 -35.9904 -35.9292 -35.9279 -14.6572 -14.6540 -14.1475 -14.1454
    -5.5829  -5.5799  -4.9157  -4.9111  -3.6941  -3.6896  -3.0094  -3.0073
    -2.8639  -2.8597  -1.9315  -1.9295  -1.3225  -1.3216   0.0530   0.0538
     0.3135   0.3155   2.1596   2.1721   2.1850   2.1868   4.0093

          k = 0.1250 0.2887 0.0000 ( 37723 PWs)   bands (ev):

   -61.8817 -61.8808 -48.2908 -48.2904 -48.2894 -48.2890 -48.2885 -48.2882
   -48.2871 -48.2868 -48.2467 -48.2459 -48.2457 -48.2455 -48.2454 -48.2445
   -48.2444 -48.2442 -48.2255 -48.2250 -48.2242 -48.2238 -36.0481 -36.0467
   -35.9811 -35.9800 -35.9452 -35.9438 -14.3348 -14.3316 -13.9803 -13.9779
    -5.2691  -5.2652  -5.0801  -5.0764  -4.4619  -4.4581  -3.4618  -3.4587
    -2.9536  -2.9499  -2.1994  -2.1980  -1.1959  -1.1947  -0.1597  -0.1588
     0.6064   0.6079   1.8733   1.8752   2.4706   2.4829   4.4820

          k = 0.1250 0.3608 0.0000 ( 37761 PWs)   bands (ev):

   -61.8772 -61.8763 -48.2907 -48.2902 -48.2893 -48.2888 -48.2878 -48.2875
   -48.2864 -48.2861 -48.2471 -48.2461 -48.2458 -48.2457 -48.2456 -48.2448
   -48.2445 -48.2443 -48.2251 -48.2246 -48.2237 -48.2234 -36.0910 -36.0896
   -35.9712 -35.9702 -35.9609 -35.9596 -13.9946 -13.9915 -13.7793 -13.7767
    -5.4721  -5.4677  -5.2618  -5.2583  -4.6658  -4.6628  -3.8498  -3.8465
    -3.0529  -3.0498  -2.6296  -2.6282  -1.0651  -1.0636  -0.1244  -0.1237
     0.8892   0.8902   1.7915   1.7933   2.7808   2.7916   5.0426

          k = 0.1250 0.4330 0.0000 ( 37768 PWs)   bands (ev):

   -61.8734 -61.8725 -48.2907 -48.2900 -48.2892 -48.2886 -48.2872 -48.2869
   -48.2857 -48.2855 -48.2473 -48.2464 -48.2459 -48.2459 -48.2456 -48.2450
   -48.2445 -48.2443 -48.2248 -48.2243 -48.2234 -48.2230 -36.1270 -36.1256
   -35.9763 -35.9749 -35.9610 -35.9600 -13.7447 -13.7414 -13.5162 -13.5135
    -6.0617  -6.0579  -5.5208  -5.5174  -4.3951  -4.3925  -4.0771  -4.0735
    -3.1645  -3.1618  -2.9782  -2.9765  -1.0330  -1.0318   0.1192   0.1198
     1.0795   1.0807   1.9015   1.9030   3.0622   3.0696   5.5033

          k = 0.1250 0.5052 0.0000 ( 37794 PWs)   bands (ev):

   -61.8709 -61.8700 -48.2906 -48.2899 -48.2892 -48.2885 -48.2868 -48.2865
   -48.2853 -48.2851 -48.2475 -48.2466 -48.2461 -48.2459 -48.2457 -48.2452
   -48.2445 -48.2444 -48.2245 -48.2240 -48.2231 -48.2228 -36.1509 -36.1494
   -35.9854 -35.9840 -35.9553 -35.9543 -13.6128 -13.6093 -13.2672 -13.2646
    -6.5650  -6.5612  -5.5541  -5.5512  -4.5678  -4.5652  -4.0288  -4.0249
    -3.2458  -3.2435  -3.0422  -3.0403  -1.0902  -1.0892   0.4570   0.4582
     1.1289   1.1300   2.0682   2.0698   3.2513   3.2551   5.2665

          k = 0.1250 0.5774 0.0000 ( 37780 PWs)   bands (ev):

   -61.8700 -61.8691 -48.2906 -48.2899 -48.2892 -48.2885 -48.2866 -48.2863
   -48.2852 -48.2849 -48.2475 -48.2466 -48.2462 -48.2459 -48.2457 -48.2453
   -48.2445 -48.2444 -48.2244 -48.2239 -48.2231 -48.2227 -36.1593 -36.1578
   -35.9886 -35.9872 -35.9533 -35.9523 -13.5691 -13.5656 -13.1679 -13.1653
    -6.7485  -6.7448  -5.5460  -5.5435  -4.6824  -4.6797  -4.0252  -4.0212
    -3.2750  -3.2728  -2.9968  -2.9949  -1.1292  -1.1283   0.6585   0.6602
     1.0804   1.0812   2.1513   2.1530   3.3167   3.3191   5.0220

          k = 0.1875 0.3248 0.0000 ( 37725 PWs)   bands (ev):

   -61.8776 -61.8767 -48.2906 -48.2901 -48.2891 -48.2887 -48.2880 -48.2876
   -48.2865 -48.2863 -48.2470 -48.2461 -48.2458 -48.2457 -48.2456 -48.2446
   -48.2445 -48.2443 -48.2252 -48.2247 -48.2238 -48.2234 -36.0815 -36.0800
   -35.9733 -35.9722 -35.9645 -35.9632 -14.0100 -14.0069 -13.8140 -13.8114
    -5.3398  -5.3353  -5.0932  -5.0894  -4.7548  -4.7520  -3.8528  -3.8503
    -3.3337  -3.3298  -2.5103  -2.5091  -0.8966  -0.8953  -0.3042  -0.3036
     0.8874   0.8886   1.6048   1.6057   2.7694   2.7815   4.9973

          k = 0.1875 0.3969 0.0000 ( 37753 PWs)   bands (ev):

   -61.8738 -61.8729 -48.2904 -48.2897 -48.2889 -48.2883 -48.2876 -48.2872
   -48.2861 -48.2858 -48.2472 -48.2463 -48.2460 -48.2459 -48.2457 -48.2449
   -48.2446 -48.2444 -48.2248 -48.2243 -48.2234 -48.2231 -36.1102 -36.1088
   -35.9886 -35.9872 -35.9618 -35.9608 -13.7070 -13.7039 -13.6166 -13.6138
    -5.6929  -5.6891  -5.4435  -5.4395  -4.3542  -4.3515  -4.2048  -4.2021
    -3.6594  -3.6559  -2.9091  -2.9078  -0.6903  -0.6893  -0.2362  -0.2358
     1.1089   1.1099   1.5242   1.5250   3.0641   3.0722   5.5628

          k = 0.1875 0.4691 0.0000 ( 37759 PWs)   bands (ev):

   -61.8709 -61.8700 -48.2902 -48.2895 -48.2887 -48.2881 -48.2872 -48.2869
   -48.2858 -48.2855 -48.2474 -48.2466 -48.2460 -48.2460 -48.2457 -48.2452
   -48.2447 -48.2444 -48.2245 -48.2240 -48.2231 -48.2228 -36.1311 -36.1296
   -36.0056 -36.0043 -35.9553 -35.9543 -13.5466 -13.5433 -13.3543 -13.3515
    -6.1771  -6.1734  -5.5108  -5.5072  -4.4268  -4.4238  -4.1181  -4.1153
    -3.8849  -3.8821  -3.1791  -3.1775  -0.7417  -0.7413   0.1057   0.1063
     1.1490   1.1502   1.6752   1.6761   3.2303   3.2344   5.7499

          k = 0.1875 0.5413 0.0000 ( 37793 PWs)   bands (ev):

   -61.8693 -61.8684 -48.2901 -48.2893 -48.2886 -48.2879 -48.2870 -48.2867
   -48.2856 -48.2853 -48.2474 -48.2467 -48.2461 -48.2460 -48.2457 -48.2454
   -48.2447 -48.2444 -48.2244 -48.2239 -48.2230 -48.2227 -36.1421 -36.1406
   -36.0153 -36.0139 -35.9517 -35.9508 -13.4690 -13.4656 -13.1848 -13.1820
    -6.4544  -6.4507  -5.5393  -5.5361  -4.5203  -4.5173  -4.1608  -4.1578
    -3.9597  -3.9574  -3.2003  -3.1984  -0.8297  -0.8293   0.4724   0.4732
     1.0015   1.0028   1.8859   1.8870   3.2271   3.2294   5.6477

          k = 0.2500 0.4330 0.0000 ( 37711 PWs)   bands (ev):

   -61.8709 -61.8700 -48.2899 -48.2892 -48.2885 -48.2878 -48.2874 -48.2871
   -48.2860 -48.2857 -48.2473 -48.2465 -48.2462 -48.2460 -48.2457 -48.2451
   -48.2449 -48.2443 -48.2245 -48.2240 -48.2231 -48.2228 -36.1207 -36.1192
   -36.0163 -36.0149 -35.9553 -35.9543 -13.4848 -13.4816 -13.4246 -13.4217
    -5.9566  -5.9529  -5.4793  -5.4753  -4.4083  -4.4058  -4.2483  -4.2450
    -4.0438  -4.0409  -3.2748  -3.2735  -0.3309  -0.3304  -0.3101  -0.3091
     1.1445   1.1454   1.5503   1.5510   3.2288   3.2329   5.9517

          k = 0.2500 0.5052 0.0000 ( 37776 PWs)   bands (ev):

   -61.8689 -61.8680 -48.2895 -48.2888 -48.2881 -48.2875 -48.2874 -48.2871
   -48.2860 -48.2857 -48.2473 -48.2467 -48.2463 -48.2459 -48.2456 -48.2453
   -48.2450 -48.2443 -48.2244 -48.2239 -48.2230 -48.2227 -36.1232 -36.1218
   -36.0393 -36.0379 -35.9509 -35.9499 -13.3751 -13.3718 -13.2376 -13.2347
    -6.1043  -6.1007  -5.5310  -5.5272  -4.6677  -4.6642  -4.3855  -4.3833
    -3.9699  -3.9677  -3.5127  -3.5111  -0.4332  -0.4331   0.0625   0.0630
     0.9647   0.9660   1.8419   1.8426   3.1572   3.1595   5.7880

          k = 0.2500 0.5774 0.0000 ( 37791 PWs)   bands (ev):

   -61.8683 -61.8674 -48.2894 -48.2886 -48.2879 -48.2875 -48.2872 -48.2871
   -48.2860 -48.2858 -48.2472 -48.2468 -48.2464 -48.2459 -48.2456 -48.2455
   -48.2450 -48.2443 -48.2243 -48.2238 -48.2229 -48.2226 -36.1227 -36.1212
   -36.0489 -36.0474 -35.9494 -35.9484 -13.3365 -13.3331 -13.1678 -13.1648
    -6.1472  -6.1436  -5.5612  -5.5575  -4.8206  -4.8171  -4.2058  -4.2036
    -4.1862  -4.1843  -3.5135  -3.5116  -0.4841  -0.4840   0.3212   0.3212
     0.7574   0.7594   2.0608   2.0616   3.0202   3.0220   5.6866

          k = 0.3125 0.5413 0.0000 ( 37789 PWs)   bands (ev):

   -61.8679 -61.8670 -48.2889 -48.2882 -48.2878 -48.2875 -48.2875 -48.2868
   -48.2864 -48.2861 -48.2471 -48.2469 -48.2466 -48.2457 -48.2456 -48.2455
   -48.2453 -48.2442 -48.2243 -48.2238 -48.2229 -48.2226 -36.1052 -36.1037
   -36.0714 -36.0699 -35.9485 -35.9475 -13.2570 -13.2537 -13.1952 -13.1921
    -5.8430  -5.8394  -5.5709  -5.5669  -5.2603  -5.2568  -4.2189  -4.2170
    -3.8808  -3.8787  -3.8783  -3.8773  -0.1467  -0.1462   0.0307   0.0308
     0.6578   0.6600   2.2687   2.2697   2.8330   2.8346   5.6180

     the Fermi energy is    -0.2958 ev

!    total energy              =   -2326.92187255 Ry
     total all-electron energy =    -35628.669701 Ry
     estimated scf accuracy    <          4.3E-09 Ry
     smearing contrib. (-TS)   =       0.00090256 Ry
     internal energy E=F+TS    =   -2326.92277511 Ry

     The total energy is F=E-TS. E is the sum of the following terms:
     one-electron contribution =  -18547.18469215 Ry
     hartree contribution      =    9261.82205382 Ry
     xc contribution           =    -152.42426808 Ry
     ewald contribution        =    8121.37864265 Ry
     one-center paw contrib.   =   -1010.51451135 Ry

     convergence has been achieved in  25 iterations

     Writing all to output data dir ./tmp/cleave_029/mose2_cleave_029.save/ :
     XML data file, charge density, pseudopotentials, collected wavefunctions

     init_run     :     11.49s CPU     11.78s WALL (       1 calls)
     electrons    :    483.98s CPU    497.74s WALL (       1 calls)

     Called by init_run:
     wfcinit      :      5.30s CPU      5.36s WALL (       1 calls)
     potinit      :      5.50s CPU      5.66s WALL (       1 calls)
     hinit0       :      0.06s CPU      0.06s WALL (       1 calls)

     Called by electrons:
     c_bands      :    403.86s CPU    411.93s WALL (      26 calls)
     sum_band     :     52.49s CPU     55.32s WALL (      26 calls)
     v_of_rho     :     15.42s CPU     16.40s WALL (      26 calls)
     newd         :     10.08s CPU     12.02s WALL (      26 calls)
     PAW_pot      :      1.61s CPU      1.66s WALL (      26 calls)
     mix_rho      :      6.16s CPU      6.27s WALL (      26 calls)
     vdW_kernel   :      5.04s CPU      5.17s WALL (       1 calls)

     Called by c_bands:
     init_us_2    :      2.18s CPU      2.19s WALL (    1590 calls)
     cegterg      :    392.05s CPU    399.78s WALL (     780 calls)

     Called by *egterg:
     cdiaghg      :     10.22s CPU     10.23s WALL (    3763 calls)
     h_psi        :    153.75s CPU    155.86s WALL (    3823 calls)
     s_psi        :     21.90s CPU     21.92s WALL (    3823 calls)
     g_psi        :      0.30s CPU      0.30s WALL (    3013 calls)

     Called by h_psi:
     h_psi:calbec :     50.66s CPU     51.86s WALL (    3823 calls)
     vloc_psi     :     78.16s CPU     79.03s WALL (    3823 calls)
                                        0.00s GPU  (    3823 calls)
     add_vuspsi   :     24.57s CPU     24.60s WALL (    3823 calls)

     General routines
     calbec       :     72.17s CPU     73.86s WALL (    4603 calls)
     fft          :      7.74s CPU      7.98s WALL (    1637 calls)
     ffts         :      2.38s CPU      2.41s WALL (    3004 calls)
     fftw         :     91.68s CPU     92.71s WALL (  236770 calls)
     interpolate  :      0.12s CPU      0.12s WALL (      26 calls)

     Parallel routines

     PWSCF        :   8m16.01s CPU   8m30.34s WALL


   This run was terminated on:  12:40:37  20Jun2026            

=------------------------------------------------------------------------------=
   JOB DONE.
=------------------------------------------------------------------------------=
Note: The following floating-point exceptions are signalling: IEEE_UNDERFLOW_FLAG IEEE_DENORMAL
Note: The following floating-point exceptions are signalling: IEEE_UNDERFLOW_FLAG IEEE_DENORMAL
Note: The following floating-point exceptions are signalling: IEEE_UNDERFLOW_FLAG IEEE_DENORMAL
Note: The following floating-point exceptions are signalling: IEEE_UNDERFLOW_FLAG IEEE_DENORMAL
Note: The following floating-point exceptions are signalling: IEEE_UNDERFLOW_FLAG IEEE_DENORMAL
Note: The following floating-point exceptions are signalling: IEEE_UNDERFLOW_FLAG IEEE_DENORMAL
Note: The following floating-point exceptions are signalling: IEEE_UNDERFLOW_FLAG IEEE_DENORMAL
Note: The following floating-point exceptions are signalling: IEEE_UNDERFLOW_FLAG IEEE_DENORMAL
Note: The following floating-point exceptions are signalling: IEEE_UNDERFLOW_FLAG IEEE_DENORMAL
Note: The following floating-point exceptions are signalling: IEEE_UNDERFLOW_FLAG IEEE_DENORMAL
Note: The following floating-point exceptions are signalling: IEEE_UNDERFLOW_FLAG IEEE_DENORMAL
Note: The following floating-point exceptions are signalling: IEEE_UNDERFLOW_FLAG IEEE_DENORMAL
Note: The following floating-point exceptions are signalling: IEEE_UNDERFLOW_FLAG IEEE_DENORMAL
Note: The following floating-point exceptions are signalling: IEEE_UNDERFLOW_FLAG IEEE_DENORMAL
Note: The following floating-point exceptions are signalling: IEEE_UNDERFLOW_FLAG IEEE_DENORMAL
Note: The following floating-point exceptions are signalling: IEEE_UNDERFLOW_FLAG IEEE_DENORMAL
Note: The following floating-point exceptions are signalling: IEEE_UNDERFLOW_FLAG IEEE_DENORMAL
Note: The following floating-point exceptions are signalling: IEEE_UNDERFLOW_FLAG IEEE_DENORMAL
Note: The following floating-point exceptions are signalling: IEEE_UNDERFLOW_FLAG IEEE_DENORMAL
Note: The following floating-point exceptions are signalling: IEEE_UNDERFLOW_FLAG IEEE_DENORMAL
Note: The following floating-point exceptions are signalling: IEEE_UNDERFLOW_FLAG IEEE_DENORMAL
Note: The following floating-point exceptions are signalling: IEEE_UNDERFLOW_FLAG IEEE_DENORMAL
Note: The following floating-point exceptions are signalling: IEEE_UNDERFLOW_FLAG IEEE_DENORMAL
Note: The following floating-point exceptions are signalling: IEEE_UNDERFLOW_FLAG IEEE_DENORMAL
