
     Program PWSCF v.7.5 starts on 20Jun2026 at 11: 6:55 

     This program is part of the open-source Quantum ESPRESSO suite
     for quantum simulation of materials; please cite
         "P. Giannozzi et al., J. Phys.:Condens. Matter 21 395502 (2009);
         "P. Giannozzi et al., J. Phys.:Condens. Matter 29 465901 (2017);
         "P. Giannozzi et al., J. Chem. Phys. 152 154105 (2020);
          URL http://www.quantum-espresso.org", 
     in publications or presentations arising from this work. More details at
     http://www.quantum-espresso.org/quote

     Parallel version (MPI), running on    24 processors

     MPI processes distributed on     1 nodes
     4318 MiB available memory on the printing compute node when the environment starts

     Waiting for input...
     Reading input from standard input

     Current dimensions of program PWSCF are:
     Max number of different atomic species (ntypx) = 10
     Max number of k-points (npk) =  40000
     Max angular momentum in pseudopotentials (lmaxx) =  4
     file Mo.pbe-spn-kjpaw_psl.1.0.0.UPF: wavefunction(s)  4S 4D renormalized
     file Se.pbe-dn-kjpaw_psl.1.0.0.UPF: wavefunction(s)  4S 4P 3D renormalized

     IMPORTANT: XC functional enforced from input :
     Exchange-correlation= VDW-DF2-B86R
                           (   1   4  26   0   2   0   0)
     Any further DFT definition will be discarded
     Please, verify this is what you really want


     R & G space division:  proc/nbgrp/npool/nimage =      24
     Subspace diagonalization in iterative solution of the eigenvalue problem:
     a serial algorithm will be used


     Parallelization info
     --------------------
     sticks:   dense  smooth     PW     G-vecs:    dense   smooth      PW
     Min          69      35     10                35537    12585    1924
     Max          70      36     11                35620    12648    1981
     Sum        1675     847    241               853823   302525   46513

     Using Slab Decomposition



     bravais-lattice index     =            4
     lattice parameter (alat)  =       6.1794  a.u.
     unit-cell volume          =    3124.5879 (a.u.)^3
     number of atoms/cell      =            6
     number of atomic types    =            2
     number of electrons       =        92.00
     number of Kohn-Sham states=           55
     kinetic-energy cutoff     =      80.0000  Ry
     charge density cutoff     =     640.0000  Ry
     scf convergence threshold =      1.0E-08
     mixing beta               =       0.3000
     number of iterations used =            8  local-TF  mixing
     Exchange-correlation= VDW-DF2-B86R
                           (   1   4  26   0   2   0   0)

     celldm(1)=   6.179404  celldm(2)=   0.000000  celldm(3)=  15.290520
     celldm(4)=   0.000000  celldm(5)=   0.000000  celldm(6)=   0.000000

     crystal axes: (cart. coord. in units of alat)
               a(1) = (   1.000000   0.000000   0.000000 )  
               a(2) = (  -0.500000   0.866025   0.000000 )  
               a(3) = (   0.000000   0.000000  15.290520 )  

     reciprocal axes: (cart. coord. in units 2 pi/alat)
               b(1) = (  1.000000  0.577350 -0.000000 )  
               b(2) = (  0.000000  1.154701  0.000000 )  
               b(3) = (  0.000000 -0.000000  0.065400 )  


     PseudoPot. # 1 for Mo read from file:
     ./pseudo/Mo.pbe-spn-kjpaw_psl.1.0.0.UPF
     MD5 check sum: 4396e0c640fcce5c25f020efccf1ab12
     Pseudo is Projector augmented-wave + core cor, Zval = 14.0
     Generated using &quot;atomic&quot; code by A. Dal Corso  v.6.3
     Shape of augmentation charge: PSQ
     Using radial grid of 1229 points,  6 beta functions with: 
                l(1) =   0
                l(2) =   0
                l(3) =   1
                l(4) =   1
                l(5) =   2
                l(6) =   2
     Q(r) pseudized with 0 coefficients 


     PseudoPot. # 2 for Se read from file:
     ./pseudo/Se.pbe-dn-kjpaw_psl.1.0.0.UPF
     MD5 check sum: ac240dd2bae32a30e0bf3a38df9c8785
     Pseudo is Projector augmented-wave + core cor, Zval = 16.0
     Generated using &quot;atomic&quot; code by A. Dal Corso  v.6.3
     Shape of augmentation charge: PSQ
     Using radial grid of 1211 points,  6 beta functions with: 
                l(1) =   0
                l(2) =   0
                l(3) =   1
                l(4) =   1
                l(5) =   2
                l(6) =   2
     Q(r) pseudized with 0 coefficients 


     atomic species   valence    mass     pseudopotential
     Mo               14.00    95.96000     Mo( 1.00)
     Se               16.00    78.96000     Se( 1.00)

      6 Sym. Ops. (no inversion) found



   Cartesian axes

     site n.     atom                  positions (alat units)
         1        Se     tau(   1) = (  -0.0000005   0.5773506   6.1238532  )
         2        Mo     tau(   2) = (   0.0000000   0.0000000   6.6502752  )
         3        Se     tau(   3) = (   0.5000005   0.2886748   7.1775994  )
         4        Se     tau(   4) = (  -0.0000005   0.5773506   9.2132569  )
         5        Mo     tau(   5) = (   0.5000005   0.2886748   9.7404434  )
         6        Se     tau(   6) = (   0.0000000   0.0000000  10.2675841  )

     number of k points=    30  Methfessel-Paxton smearing, width (Ry)=  0.0200
                       cart. coord. in units 2pi/alat
        k(    1) = (   0.0000000   0.0000000   0.0000000), wk =   0.0078125
        k(    2) = (   0.0000000   0.0721688   0.0000000), wk =   0.0468750
        k(    3) = (   0.0000000   0.1443376   0.0000000), wk =   0.0468750
        k(    4) = (   0.0000000   0.2165064   0.0000000), wk =   0.0468750
        k(    5) = (   0.0000000   0.2886751   0.0000000), wk =   0.0468750
        k(    6) = (   0.0000000   0.3608439   0.0000000), wk =   0.0468750
        k(    7) = (   0.0000000   0.4330127   0.0000000), wk =   0.0468750
        k(    8) = (   0.0000000   0.5051815   0.0000000), wk =   0.0468750
        k(    9) = (   0.0000000  -0.5773503   0.0000000), wk =   0.0234375
        k(   10) = (   0.0625000   0.1082532   0.0000000), wk =   0.0468750
        k(   11) = (   0.0625000   0.1804220   0.0000000), wk =   0.0937500
        k(   12) = (   0.0625000   0.2525907   0.0000000), wk =   0.0937500
        k(   13) = (   0.0625000   0.3247595   0.0000000), wk =   0.0937500
        k(   14) = (   0.0625000   0.3969283   0.0000000), wk =   0.0937500
        k(   15) = (   0.0625000   0.4690971   0.0000000), wk =   0.0937500
        k(   16) = (   0.0625000   0.5412659   0.0000000), wk =   0.0937500
        k(   17) = (   0.1250000   0.2165064   0.0000000), wk =   0.0468750
        k(   18) = (   0.1250000   0.2886751   0.0000000), wk =   0.0937500
        k(   19) = (   0.1250000   0.3608439   0.0000000), wk =   0.0937500
        k(   20) = (   0.1250000   0.4330127   0.0000000), wk =   0.0937500
        k(   21) = (   0.1250000   0.5051815   0.0000000), wk =   0.0937500
        k(   22) = (   0.1250000   0.5773503   0.0000000), wk =   0.0468750
        k(   23) = (   0.1875000   0.3247595   0.0000000), wk =   0.0468750
        k(   24) = (   0.1875000   0.3969283   0.0000000), wk =   0.0937500
        k(   25) = (   0.1875000   0.4690971   0.0000000), wk =   0.0937500
        k(   26) = (   0.1875000   0.5412659   0.0000000), wk =   0.0937500
        k(   27) = (   0.2500000   0.4330127   0.0000000), wk =   0.0468750
        k(   28) = (   0.2500000   0.5051815   0.0000000), wk =   0.0937500
        k(   29) = (   0.2500000   0.5773503   0.0000000), wk =   0.0468750
        k(   30) = (   0.3125000   0.5412659   0.0000000), wk =   0.0468750

     Dense  grid:   853823 G-vectors     FFT dimensions: (  50,  50, 768)

     Smooth grid:   302525 G-vectors     FFT dimensions: (  36,  36, 540)

     Estimated max dynamical RAM per process >     171.88 MB

     Estimated total dynamical RAM >       4.03 GB

     Initial potential from superposition of free atoms

     starting charge      91.9979, renormalised to      92.0000

     negative rho (up, down):  1.750E-04 0.000E+00


     %%%%%%%%%%%%%%%%%%%%%%%%%%%%%%%%%%%%%%%%%%%%%%%%%%%%%%%%%%%%%%%%%%%%%%%%
     %                                                                      %
     % You are using vdW-DF, which was implemented by the Thonhauser group. %
     % Please cite the following two papers that made this development      %
     % possible and the two reviews that describe the various versions:     %
     %                                                                      %
     %   T. Thonhauser et al., PRL 115, 136402 (2015).                      %
     %   T. Thonhauser et al., PRB 76, 125112 (2007).                       %
     %   K. Berland et al., Rep. Prog. Phys. 78, 066501 (2015).             %
     %   D.C. Langreth et al., J. Phys.: Condens. Matter 21, 084203 (2009). %
     %                                                                      %
     % If you are calculating stress with vdW-DF, please also cite:         %
     %                                                                      %
     %   R. Sabatini et al., J. Phys.: Condens. Matter 24, 424209 (2012).   %
     %                                                                      %
     %%%%%%%%%%%%%%%%%%%%%%%%%%%%%%%%%%%%%%%%%%%%%%%%%%%%%%%%%%%%%%%%%%%%%%%%

     %%%%%%%%%%%%%%%%%%%%%%%%%%%%%%%%%%%%%%%%%%%%%%%%%%%%%%%%%%%%%%%%%%%%%%%%
     %                                                                      %
     %  vdW-DF NEWS:                                                        %
     %                                                                      %
     %  * vdW-DF3 is now available. DOI: 10.1021/acs.jctc.0c00471           %
     %    use with input_dft = 'vdW-DF3-opt1' or 'vdW-DF3-opt2'             %
     %                                                                      %
     %  * Unscreened and range-separated hybrid vdW-DF-cx functionals       %
     %    DOI: 10.1063/1.4986522 and 10.1088/1361-648X/ac2ad2               %
     %    use with input_dft = 'vdW-DF-cx0'    and 'vdW-DF-ahcx'            %
     %  * Unscreened and range-separated hybrid vdW-DF2-b86r functionals    %
     %    DOI: 10.1063/1.4986522 and DOI: 10.1103/PhysRevX.12.041003        %
     %    use with input_dft = 'vdW-DF2-br0' and 'vdW-DF2-ahbr'             %
     %                                                                      %
     %%%%%%%%%%%%%%%%%%%%%%%%%%%%%%%%%%%%%%%%%%%%%%%%%%%%%%%%%%%%%%%%%%%%%%%%


     Starting wfcs are   56 randomized atomic wfcs
     Checking if some PAW data can be deallocated... 

     total cpu time spent up to now is       12.1 secs

     per-process dynamical memory:    79.7 Mb

     Self-consistent Calculation

     iteration #  1     ecut=    80.00 Ry     beta= 0.30
     Davidson diagonalization with overlap
     ethr =  1.00E-02,  avg # of iterations =  4.5

     Threshold (ethr) on eigenvalues was too large:
     Diagonalizing with lowered threshold

     Davidson diagonalization with overlap
     ethr =  4.48E-04,  avg # of iterations =  2.5

     negative rho (up, down):  4.649E-05 0.000E+00

     total cpu time spent up to now is       50.1 secs

     total energy              =   -2326.96211177 Ry
     estimated scf accuracy    <       0.45991233 Ry

     iteration #  2     ecut=    80.00 Ry     beta= 0.30
     Davidson diagonalization with overlap
     ethr =  5.00E-04,  avg # of iterations =  1.1

     negative rho (up, down):  3.075E-05 0.000E+00

     total cpu time spent up to now is       65.5 secs

     total energy              =   -2326.91775782 Ry
     estimated scf accuracy    <       0.23530806 Ry

     iteration #  3     ecut=    80.00 Ry     beta= 0.30
     Davidson diagonalization with overlap
     ethr =  2.56E-04,  avg # of iterations =  2.9

     negative rho (up, down):  1.410E-05 0.000E+00

     total cpu time spent up to now is       84.1 secs

     total energy              =   -2326.92373505 Ry
     estimated scf accuracy    <       0.03156782 Ry

     iteration #  4     ecut=    80.00 Ry     beta= 0.30
     Davidson diagonalization with overlap
     c_bands:  1 eigenvalues not converged
     ethr =  3.43E-05,  avg # of iterations =  8.2

     negative rho (up, down):  6.482E-06 0.000E+00

     total cpu time spent up to now is      105.7 secs

     total energy              =   -2326.92395477 Ry
     estimated scf accuracy    <       0.00950434 Ry

     iteration #  5     ecut=    80.00 Ry     beta= 0.30
     Davidson diagonalization with overlap
     c_bands:  1 eigenvalues not converged
     ethr =  1.03E-05,  avg # of iterations =  5.0

     negative rho (up, down):  8.743E-07 0.000E+00

     total cpu time spent up to now is      126.3 secs

     total energy              =   -2326.92310977 Ry
     estimated scf accuracy    <       0.00378477 Ry

     iteration #  6     ecut=    80.00 Ry     beta= 0.30
     Davidson diagonalization with overlap
     c_bands:  1 eigenvalues not converged
     ethr =  4.11E-06,  avg # of iterations =  9.4

     negative rho (up, down):  3.996E-07 0.000E+00

     total cpu time spent up to now is      150.0 secs

     total energy              =   -2326.92318449 Ry
     estimated scf accuracy    <       0.00135002 Ry

     iteration #  7     ecut=    80.00 Ry     beta= 0.30
     Davidson diagonalization with overlap
     ethr =  1.47E-06,  avg # of iterations =  3.1

     negative rho (up, down):  2.733E-07 0.000E+00

     total cpu time spent up to now is      168.3 secs

     total energy              =   -2326.92307283 Ry
     estimated scf accuracy    <       0.00125391 Ry

     iteration #  8     ecut=    80.00 Ry     beta= 0.30
     Davidson diagonalization with overlap
     ethr =  1.36E-06,  avg # of iterations =  6.3

     negative rho (up, down):  1.256E-07 0.000E+00

     total cpu time spent up to now is      187.3 secs

     total energy              =   -2326.92303324 Ry
     estimated scf accuracy    <       0.00095700 Ry

     iteration #  9     ecut=    80.00 Ry     beta= 0.30
     Davidson diagonalization with overlap
     ethr =  1.04E-06,  avg # of iterations =  1.7

     negative rho (up, down):  2.190E-03 0.000E+00

     total cpu time spent up to now is      204.4 secs

     total energy              =   -2326.92300239 Ry
     estimated scf accuracy    <       0.00076347 Ry

     iteration # 10     ecut=    80.00 Ry     beta= 0.30
     Davidson diagonalization with overlap
     ethr =  8.30E-07,  avg # of iterations =  1.7

     negative rho (up, down):  4.639E-03 0.000E+00

     total cpu time spent up to now is      221.3 secs

     total energy              =   -2326.92294263 Ry
     estimated scf accuracy    <       0.00053640 Ry

     iteration # 11     ecut=    80.00 Ry     beta= 0.30
     Davidson diagonalization with overlap
     ethr =  5.83E-07,  avg # of iterations =  1.8

     negative rho (up, down):  6.609E-03 0.000E+00

     total cpu time spent up to now is      238.7 secs

     total energy              =   -2326.92285609 Ry
     estimated scf accuracy    <       0.00035177 Ry

     iteration # 12     ecut=    80.00 Ry     beta= 0.30
     Davidson diagonalization with overlap
     ethr =  3.82E-07,  avg # of iterations =  4.2

     negative rho (up, down):  5.435E-03 0.000E+00

     total cpu time spent up to now is      257.3 secs

     total energy              =   -2326.92287225 Ry
     estimated scf accuracy    <       0.00018785 Ry

     iteration # 13     ecut=    80.00 Ry     beta= 0.30
     Davidson diagonalization with overlap
     ethr =  2.04E-07,  avg # of iterations =  1.0

     negative rho (up, down):  2.027E-03 0.000E+00

     total cpu time spent up to now is      272.6 secs

     total energy              =   -2326.92286050 Ry
     estimated scf accuracy    <       0.00015471 Ry

     iteration # 14     ecut=    80.00 Ry     beta= 0.30
     Davidson diagonalization with overlap
     ethr =  1.68E-07,  avg # of iterations =  1.7

     negative rho (up, down):  1.975E-03 0.000E+00

     total cpu time spent up to now is      289.9 secs

     total energy              =   -2326.92284883 Ry
     estimated scf accuracy    <       0.00009171 Ry

     iteration # 15     ecut=    80.00 Ry     beta= 0.30
     Davidson diagonalization with overlap
     ethr =  9.97E-08,  avg # of iterations =  1.2

     negative rho (up, down):  1.533E-03 0.000E+00

     total cpu time spent up to now is      307.5 secs

     total energy              =   -2326.92287041 Ry
     estimated scf accuracy    <       0.00006677 Ry

     iteration # 16     ecut=    80.00 Ry     beta= 0.30
     Davidson diagonalization with overlap
     ethr =  7.26E-08,  avg # of iterations =  2.7

     negative rho (up, down):  1.328E-03 0.000E+00

     total cpu time spent up to now is      324.7 secs

     total energy              =   -2326.92287151 Ry
     estimated scf accuracy    <       0.00003902 Ry

     iteration # 17     ecut=    80.00 Ry     beta= 0.30
     Davidson diagonalization with overlap
     ethr =  4.24E-08,  avg # of iterations =  1.9

     negative rho (up, down):  8.983E-04 0.000E+00

     total cpu time spent up to now is      342.5 secs

     total energy              =   -2326.92289132 Ry
     estimated scf accuracy    <       0.00001253 Ry

     iteration # 18     ecut=    80.00 Ry     beta= 0.30
     Davidson diagonalization with overlap
     ethr =  1.36E-08,  avg # of iterations =  2.0

     negative rho (up, down):  4.154E-04 0.000E+00

     total cpu time spent up to now is      362.2 secs

     total energy              =   -2326.92289838 Ry
     estimated scf accuracy    <       0.00000560 Ry

     iteration # 19     ecut=    80.00 Ry     beta= 0.30
     Davidson diagonalization with overlap
     ethr =  6.09E-09,  avg # of iterations =  2.0

     negative rho (up, down):  2.623E-04 0.000E+00

     total cpu time spent up to now is      380.8 secs

     total energy              =   -2326.92290003 Ry
     estimated scf accuracy    <       0.00000150 Ry

     iteration # 20     ecut=    80.00 Ry     beta= 0.30
     Davidson diagonalization with overlap
     ethr =  1.63E-09,  avg # of iterations =  2.4

     negative rho (up, down):  2.542E-04 0.000E+00

     total cpu time spent up to now is      403.0 secs

     total energy              =   -2326.92290061 Ry
     estimated scf accuracy    <       0.00000006 Ry

     iteration # 21     ecut=    80.00 Ry     beta= 0.30
     Davidson diagonalization with overlap
     ethr =  6.25E-11,  avg # of iterations =  2.6

     negative rho (up, down):  2.116E-04 0.000E+00

     total cpu time spent up to now is      421.4 secs

     total energy              =   -2326.92290023 Ry
     estimated scf accuracy    <       0.00000003 Ry

     iteration # 22     ecut=    80.00 Ry     beta= 0.30
     Davidson diagonalization with overlap
     ethr =  3.58E-11,  avg # of iterations =  2.8

     negative rho (up, down):  2.069E-04 0.000E+00

     total cpu time spent up to now is      442.4 secs

     End of self-consistent calculation

          k = 0.0000 0.0000 0.0000 ( 37787 PWs)   bands (ev):

   -61.8991 -61.8982 -48.2949 -48.2949 -48.2936 -48.2936 -48.2934 -48.2934
   -48.2922 -48.2922 -48.2495 -48.2495 -48.2481 -48.2481 -48.2480 -48.2480
   -48.2467 -48.2467 -48.2309 -48.2295 -48.2292 -48.2280 -36.0175 -36.0164
   -35.9022 -35.9022 -35.9009 -35.9009 -15.2967 -15.2932 -14.4784 -14.4769
    -6.4408  -6.4358  -3.3635  -3.3635  -3.3574  -3.3574  -3.3529  -3.3268
    -1.6070  -1.5807  -1.0672  -1.0672  -1.0643  -1.0643   0.2266   0.2266
     0.2294   0.2294   2.7626   2.9451   2.9452   2.9473   2.9473

          k = 0.0000 0.0722 0.0000 ( 37755 PWs)   bands (ev):

   -61.8981 -61.8972 -48.2948 -48.2947 -48.2935 -48.2934 -48.2934 -48.2932
   -48.2922 -48.2920 -48.2495 -48.2495 -48.2481 -48.2481 -48.2480 -48.2480
   -48.2468 -48.2467 -48.2308 -48.2294 -48.2291 -48.2280 -36.0153 -36.0142
   -35.9128 -35.9115 -35.9046 -35.9033 -15.2399 -15.2364 -14.4489 -14.4473
    -6.3630  -6.3580  -3.8391  -3.8295  -3.3315  -3.3254  -2.9439  -2.9272
    -1.6422  -1.6213  -1.2576  -1.2536  -1.2142  -1.2111   0.1152   0.1231
     0.3396   0.3420   2.5817   2.6337   2.8965   2.8986   2.9155

          k = 0.0000 0.1443 0.0000 ( 37697 PWs)   bands (ev):

   -61.8954 -61.8945 -48.2948 -48.2941 -48.2935 -48.2934 -48.2928 -48.2927
   -48.2922 -48.2915 -48.2497 -48.2496 -48.2483 -48.2482 -48.2482 -48.2481
   -48.2469 -48.2468 -48.2305 -48.2291 -48.2289 -48.2277 -36.0089 -36.0078
   -35.9429 -35.9416 -35.9116 -35.9102 -15.0735 -15.0702 -14.3627 -14.3610
    -6.1378  -6.1327  -4.3234  -4.3160  -3.2562  -3.2501  -2.7235  -2.7091
    -2.0818  -2.0763  -1.5016  -1.4982  -1.4673  -1.4511  -0.0091   0.0077
     0.5301   0.5319   1.9959   2.0476   2.7968   2.7986   3.1733

          k = 0.0000 0.2165 0.0000 ( 37653 PWs)   bands (ev):

   -61.8913 -61.8904 -48.2948 -48.2935 -48.2933 -48.2933 -48.2922 -48.2920
   -48.2919 -48.2907 -48.2500 -48.2497 -48.2486 -48.2484 -48.2483 -48.2481
   -48.2472 -48.2469 -48.2301 -48.2287 -48.2285 -48.2273 -35.9997 -35.9986
   -35.9874 -35.9860 -35.9219 -35.9206 -14.8106 -14.8073 -14.2264 -14.2245
    -5.7971  -5.7921  -4.7519  -4.7459  -3.2605  -3.2572  -3.2045  -3.1986
    -2.4439  -2.4309  -1.7253  -1.7216  -1.5652  -1.5542  -0.0423  -0.0222
     0.6365   0.6378   1.6278   1.6935   2.7313   2.7331   3.5489

          k = 0.0000 0.2887 0.0000 ( 37721 PWs)   bands (ev):

   -61.8864 -61.8855 -48.2948 -48.2935 -48.2933 -48.2924 -48.2921 -48.2911
   -48.2910 -48.2898 -48.2503 -48.2498 -48.2489 -48.2486 -48.2484 -48.2482
   -48.2474 -48.2470 -48.2297 -48.2283 -48.2280 -48.2269 -36.0405 -36.0390
   -35.9878 -35.9867 -35.9341 -35.9328 -14.4774 -14.4742 -14.0486 -14.0464
    -5.4852  -5.4805  -4.9914  -4.9864  -4.2824  -4.2789  -3.2589  -3.2532
    -2.6269  -2.6183  -1.8149  -1.8096  -1.7688  -1.7648   0.0390   0.0592
     0.6415   0.6425   1.7266   1.8066   2.7325   2.7343   4.0199

          k = 0.0000 0.3608 0.0000 ( 37749 PWs)   bands (ev):

   -61.8816 -61.8807 -48.2948 -48.2934 -48.2933 -48.2921 -48.2915 -48.2902
   -48.2901 -48.2889 -48.2507 -48.2499 -48.2493 -48.2489 -48.2485 -48.2483
   -48.2476 -48.2471 -48.2292 -48.2278 -48.2276 -48.2264 -36.0924 -36.0910
   -35.9764 -35.9754 -35.9463 -35.9449 -14.1291 -14.1259 -13.8291 -13.8267
    -5.6017  -5.5972  -5.2397  -5.2365  -4.7272  -4.7228  -3.4074  -3.4020
    -2.9847  -2.9801  -2.0792  -2.0756  -1.6635  -1.6595   0.3006   0.3172
     0.6183   0.6195   2.1428   2.2278   2.7690   2.7711   4.5549

          k = 0.0000 0.4330 0.0000 ( 37785 PWs)   bands (ev):

   -61.8775 -61.8765 -48.2948 -48.2934 -48.2933 -48.2920 -48.2908 -48.2895
   -48.2893 -48.2881 -48.2510 -48.2500 -48.2496 -48.2491 -48.2486 -48.2484
   -48.2478 -48.2471 -48.2288 -48.2274 -48.2272 -48.2260 -36.1362 -36.1347
   -35.9668 -35.9658 -35.9566 -35.9552 -13.8652 -13.8619 -13.5502 -13.5477
    -6.2020  -6.1982  -5.5796  -5.5762  -4.5369  -4.5340  -3.5666  -3.5613
    -3.2383  -3.2346  -2.2519  -2.2496  -1.5297  -1.5261   0.6327   0.6345
     0.6687   0.6798   2.6651   2.7392   2.8055   2.8079   4.9555

          k = 0.0000 0.5052 0.0000 ( 37822 PWs)   bands (ev):

   -61.8747 -61.8738 -48.2948 -48.2934 -48.2933 -48.2920 -48.2902 -48.2890
   -48.2888 -48.2876 -48.2512 -48.2501 -48.2498 -48.2492 -48.2487 -48.2484
   -48.2479 -48.2472 -48.2286 -48.2272 -48.2269 -48.2258 -36.1652 -36.1637
   -35.9634 -35.9621 -35.9604 -35.9593 -13.7200 -13.7165 -13.2884 -13.2859
    -6.7596  -6.7558  -5.6007  -5.5982  -4.7038  -4.7014  -3.6787  -3.6734
    -3.1177  -3.1144  -2.3795  -2.3782  -1.4424  -1.4391   0.6818   0.6840
     1.0130   1.0187   2.8281   2.8306   3.1297   3.1743   4.6352

          k = 0.0000-0.5774 0.0000 ( 37832 PWs)   bands (ev):

   -61.8737 -61.8728 -48.2948 -48.2934 -48.2933 -48.2920 -48.2901 -48.2888
   -48.2886 -48.2874 -48.2513 -48.2501 -48.2499 -48.2492 -48.2487 -48.2485
   -48.2479 -48.2472 -48.2285 -48.2271 -48.2269 -48.2257 -36.1754 -36.1739
   -35.9659 -35.9645 -35.9581 -35.9571 -13.6725 -13.6689 -13.1818 -13.1793
    -6.9648  -6.9610  -5.5711  -5.5691  -4.8466  -4.8439  -3.7183  -3.7131
    -2.9885  -2.9860  -2.4478  -2.4468  -1.4146  -1.4116   0.7093   0.7117
     1.1618   1.1639   2.8353   2.8379   3.3648   3.3830   4.3306

          k = 0.0625 0.1083 0.0000 ( 37709 PWs)   bands (ev):

   -61.8963 -61.8954 -48.2948 -48.2943 -48.2935 -48.2933 -48.2930 -48.2929
   -48.2922 -48.2917 -48.2497 -48.2495 -48.2482 -48.2481 -48.2481 -48.2480
   -48.2469 -48.2468 -48.2306 -48.2292 -48.2290 -48.2278 -36.0110 -36.0099
   -35.9329 -35.9315 -35.9096 -35.9083 -15.1283 -15.1249 -14.3911 -14.3895
    -6.2111  -6.2061  -4.1948  -4.1869  -3.2850  -3.2789  -2.7450  -2.7285
    -1.8816  -1.8756  -1.5023  -1.4983  -1.3904  -1.3767   0.0527   0.0675
     0.4299   0.4318   2.2225   2.2735   2.7490   2.7549   3.0990

          k = 0.0625 0.1804 0.0000 ( 37703 PWs)   bands (ev):

   -61.8929 -61.8919 -48.2948 -48.2937 -48.2935 -48.2933 -48.2924 -48.2922
   -48.2921 -48.2910 -48.2499 -48.2496 -48.2485 -48.2483 -48.2482 -48.2481
   -48.2471 -48.2469 -48.2303 -48.2289 -48.2286 -48.2275 -36.0030 -36.0020
   -35.9695 -35.9681 -35.9191 -35.9178 -14.9132 -14.9099 -14.2800 -14.2782
    -5.9231  -5.9181  -4.6075  -4.6011  -3.2793  -3.2735  -2.8162  -2.8092
    -2.4584  -2.4521  -1.7581  -1.7522  -1.4225  -1.4087   0.0500   0.0679
     0.4290   0.4324   1.9005   1.9590   2.5757   2.5814   3.4137

          k = 0.0625 0.2526 0.0000 ( 37702 PWs)   bands (ev):

   -61.8884 -61.8875 -48.2947 -48.2934 -48.2933 -48.2928 -48.2921 -48.2915
   -48.2914 -48.2902 -48.2502 -48.2497 -48.2488 -48.2485 -48.2483 -48.2482
   -48.2473 -48.2470 -48.2298 -48.2284 -48.2282 -48.2270 -36.0172 -36.0158
   -35.9924 -35.9913 -35.9315 -35.9301 -14.6131 -14.6098 -14.1240 -14.1219
    -5.5554  -5.5506  -4.9512  -4.9456  -3.8382  -3.8345  -3.2251  -3.2203
    -2.6047  -2.5978  -1.9675  -1.9628  -1.4504  -1.4424  -0.0130   0.0032
     0.5052   0.5146   1.7921   1.8537   2.5417   2.5561   3.8354

          k = 0.0625 0.3248 0.0000 ( 37734 PWs)   bands (ev):

   -61.8835 -61.8826 -48.2947 -48.2934 -48.2932 -48.2920 -48.2920 -48.2907
   -48.2905 -48.2893 -48.2505 -48.2499 -48.2491 -48.2488 -48.2485 -48.2483
   -48.2475 -48.2470 -48.2294 -48.2280 -48.2278 -48.2266 -36.0682 -36.0667
   -35.9811 -35.9801 -35.9449 -35.9435 -14.2647 -14.2615 -13.9304 -13.9281
    -5.4479  -5.4433  -4.9270  -4.9230  -4.7825  -4.7787  -3.4645  -3.4599
    -2.7290  -2.7244  -2.2815  -2.2789  -1.4378  -1.4332   0.0388   0.0530
     0.6551   0.6622   1.9305   1.9892   2.6268   2.6549   4.3432

          k = 0.0625 0.3969 0.0000 ( 37770 PWs)   bands (ev):

   -61.8790 -61.8781 -48.2947 -48.2933 -48.2932 -48.2920 -48.2912 -48.2899
   -48.2897 -48.2885 -48.2509 -48.2500 -48.2495 -48.2490 -48.2486 -48.2484
   -48.2477 -48.2471 -48.2290 -48.2276 -48.2273 -48.2262 -36.1149 -36.1134
   -35.9707 -35.9697 -35.9572 -35.9558 -13.9485 -13.9453 -13.6863 -13.6837
    -5.8178  -5.8138  -5.4835  -5.4800  -4.5614  -4.5577  -3.7095  -3.7053
    -2.9920  -2.9891  -2.4996  -2.4972  -1.3688  -1.3657   0.2388   0.2477
     0.8131   0.8185   2.2308   2.2669   2.7887   2.8352   4.8711

          k = 0.0625 0.4691 0.0000 ( 37798 PWs)   bands (ev):

   -61.8756 -61.8747 -48.2947 -48.2932 -48.2932 -48.2919 -48.2905 -48.2892
   -48.2891 -48.2879 -48.2511 -48.2501 -48.2497 -48.2491 -48.2487 -48.2485
   -48.2478 -48.2472 -48.2287 -48.2273 -48.2270 -48.2259 -36.1504 -36.1489
   -35.9670 -35.9656 -35.9623 -35.9612 -13.7511 -13.7476 -13.4006 -13.3981
    -6.4728  -6.4690  -5.5898  -5.5868  -4.5554  -4.5529  -3.8033  -3.7988
    -3.1068  -3.1038  -2.6048  -2.6029  -1.3283  -1.3259   0.4835   0.4875
     0.9958   1.0002   2.4717   2.4815   3.0442   3.0929   5.0294

          k = 0.0625 0.5413 0.0000 ( 37791 PWs)   bands (ev):

   -61.8737 -61.8728 -48.2947 -48.2932 -48.2932 -48.2919 -48.2902 -48.2889
   -48.2887 -48.2876 -48.2513 -48.2501 -48.2499 -48.2492 -48.2487 -48.2485
   -48.2479 -48.2472 -48.2285 -48.2271 -48.2268 -48.2257 -36.1696 -36.1681
   -35.9719 -35.9705 -35.9581 -35.9571 -13.6579 -13.6543 -13.2055 -13.2030
    -6.8596  -6.8558  -5.5722  -5.5699  -4.7652  -4.7626  -3.8209  -3.8161
    -2.9934  -2.9907  -2.6770  -2.6755  -1.3293  -1.3271   0.6649   0.6672
     1.1264   1.1289   2.5735   2.5762   3.3013   3.3256   4.6074

          k = 0.1250 0.2165 0.0000 ( 37731 PWs)   bands (ev):

   -61.8891 -61.8882 -48.2947 -48.2934 -48.2932 -48.2930 -48.2920 -48.2917
   -48.2916 -48.2904 -48.2502 -48.2497 -48.2487 -48.2485 -48.2483 -48.2482
   -48.2472 -48.2470 -48.2299 -48.2285 -48.2283 -48.2271 -36.0074 -36.0060
   -35.9942 -35.9931 -35.9320 -35.9307 -14.6596 -14.6564 -14.1498 -14.1478
    -5.5862  -5.5813  -4.9188  -4.9131  -3.6966  -3.6921  -3.0136  -3.0082
    -2.8665  -2.8623  -1.9370  -1.9294  -1.3312  -1.3195   0.0464   0.0540
     0.3006   0.3199   2.1160   2.1804   2.1825   2.1950   3.7778

          k = 0.1250 0.2887 0.0000 ( 37723 PWs)   bands (ev):

   -61.8846 -61.8837 -48.2945 -48.2932 -48.2931 -48.2923 -48.2919 -48.2910
   -48.2908 -48.2897 -48.2505 -48.2498 -48.2491 -48.2487 -48.2484 -48.2483
   -48.2474 -48.2471 -48.2295 -48.2281 -48.2279 -48.2267 -36.0509 -36.0495
   -35.9839 -35.9828 -35.9480 -35.9467 -14.3372 -14.3340 -13.9826 -13.9803
    -5.2720  -5.2672  -5.0830  -5.0782  -4.4644  -4.4606  -3.4645  -3.4609
    -2.9561  -2.9524  -2.2030  -2.1990  -1.2026  -1.1942  -0.1682  -0.1571
     0.5955   0.6108   1.8639   1.8764   2.4285   2.5027   4.2397

          k = 0.1250 0.3608 0.0000 ( 37761 PWs)   bands (ev):

   -61.8801 -61.8792 -48.2944 -48.2931 -48.2930 -48.2917 -48.2916 -48.2903
   -48.2901 -48.2889 -48.2508 -48.2500 -48.2494 -48.2489 -48.2486 -48.2484
   -48.2476 -48.2472 -48.2291 -48.2277 -48.2275 -48.2263 -36.0938 -36.0924
   -35.9740 -35.9730 -35.9638 -35.9624 -13.9970 -13.9939 -13.7817 -13.7791
    -5.4747  -5.4702  -5.2642  -5.2608  -4.6688  -4.6644  -3.8523  -3.8488
    -3.0554  -3.0523  -2.6321  -2.6300  -1.0698  -1.0645  -0.1322  -0.1224
     0.8819   0.8906   1.7819   1.7951   2.7392   2.8120   4.7682

          k = 0.1250 0.4330 0.0000 ( 37768 PWs)   bands (ev):

   -61.8763 -61.8754 -48.2943 -48.2929 -48.2929 -48.2916 -48.2909 -48.2897
   -48.2895 -48.2883 -48.2510 -48.2501 -48.2496 -48.2490 -48.2487 -48.2485
   -48.2478 -48.2473 -48.2287 -48.2273 -48.2271 -48.2259 -36.1298 -36.1284
   -35.9791 -35.9777 -35.9638 -35.9628 -13.7471 -13.7438 -13.5186 -13.5159
    -6.0642  -6.0604  -5.5233  -5.5197  -4.3975  -4.3945  -4.0795  -4.0757
    -3.1669  -3.1642  -2.9806  -2.9784  -1.0363  -1.0335   0.1131   0.1198
     1.0752   1.0790   1.8936   1.9039   3.0297   3.0851   5.2219

          k = 0.1250 0.5052 0.0000 ( 37794 PWs)   bands (ev):

   -61.8737 -61.8728 -48.2943 -48.2928 -48.2928 -48.2915 -48.2905 -48.2892
   -48.2891 -48.2879 -48.2512 -48.2502 -48.2498 -48.2491 -48.2488 -48.2486
   -48.2479 -48.2473 -48.2285 -48.2271 -48.2269 -48.2257 -36.1537 -36.1522
   -35.9882 -35.9868 -35.9581 -35.9571 -13.6152 -13.6117 -13.2696 -13.2670
    -6.5675  -6.5637  -5.5565  -5.5535  -4.5700  -4.5673  -4.0312  -4.0273
    -3.2482  -3.2459  -3.0445  -3.0421  -1.0929  -1.0913   0.4528   0.4565
     1.1256   1.1275   2.0632   2.0689   3.2331   3.2615   5.1732

          k = 0.1250 0.5774 0.0000 ( 37780 PWs)   bands (ev):

   -61.8728 -61.8719 -48.2943 -48.2928 -48.2928 -48.2915 -48.2904 -48.2891
   -48.2889 -48.2878 -48.2512 -48.2503 -48.2498 -48.2492 -48.2489 -48.2486
   -48.2479 -48.2473 -48.2284 -48.2270 -48.2268 -48.2256 -36.1621 -36.1606
   -35.9914 -35.9900 -35.9561 -35.9551 -13.5716 -13.5680 -13.1703 -13.1677
    -6.7510  -6.7472  -5.5484  -5.5459  -4.6846  -4.6818  -4.0276  -4.0236
    -3.2773  -3.2752  -2.9989  -2.9967  -1.1319  -1.1305   0.6557   0.6576
     1.0771   1.0787   2.1484   2.1505   3.3059   3.3202   4.9781

          k = 0.1875 0.3248 0.0000 ( 37725 PWs)   bands (ev):

   -61.8805 -61.8795 -48.2943 -48.2929 -48.2928 -48.2918 -48.2916 -48.2905
   -48.2903 -48.2891 -48.2507 -48.2500 -48.2493 -48.2488 -48.2485 -48.2485
   -48.2476 -48.2472 -48.2291 -48.2277 -48.2275 -48.2263 -36.0843 -36.0828
   -35.9761 -35.9750 -35.9673 -35.9660 -14.0124 -14.0093 -13.8164 -13.8138
    -5.3424  -5.3377  -5.0956  -5.0919  -4.7578  -4.7535  -3.8554  -3.8525
    -3.3362  -3.3323  -2.5127  -2.5109  -0.9026  -0.8954  -0.3118  -0.3022
     0.8787   0.8900   1.5997   1.6047   2.7236   2.8039   4.7282

          k = 0.1875 0.3969 0.0000 ( 37753 PWs)   bands (ev):

   -61.8767 -61.8757 -48.2940 -48.2926 -48.2926 -48.2913 -48.2913 -48.2900
   -48.2898 -48.2887 -48.2509 -48.2501 -48.2495 -48.2490 -48.2487 -48.2486
   -48.2477 -48.2473 -48.2288 -48.2274 -48.2271 -48.2260 -36.1130 -36.1116
   -35.9914 -35.9900 -35.9646 -35.9636 -13.7094 -13.7063 -13.6189 -13.6161
    -5.6953  -5.6915  -5.4460  -5.4419  -4.3569  -4.3531  -4.2072  -4.2043
    -3.6619  -3.6584  -2.9112  -2.9099  -0.6948  -0.6903  -0.2424  -0.2354
     1.1034   1.1090   1.5175   1.5252   3.0295   3.0889   5.2436

          k = 0.1875 0.4691 0.0000 ( 37759 PWs)   bands (ev):

   -61.8737 -61.8728 -48.2938 -48.2924 -48.2924 -48.2910 -48.2910 -48.2897
   -48.2895 -48.2883 -48.2511 -48.2503 -48.2497 -48.2491 -48.2489 -48.2486
   -48.2479 -48.2473 -48.2285 -48.2271 -48.2269 -48.2257 -36.1339 -36.1325
   -36.0085 -36.0071 -35.9581 -35.9571 -13.5490 -13.5457 -13.3567 -13.3539
    -6.1796  -6.1759  -5.5133  -5.5097  -4.4291  -4.4260  -4.1205  -4.1173
    -3.8873  -3.8845  -3.1812  -3.1795  -0.7452  -0.7429   0.1011   0.1053
     1.1457   1.1478   1.6681   1.6766   3.2125   3.2412   5.5349

          k = 0.1875 0.5413 0.0000 ( 37793 PWs)   bands (ev):

   -61.8722 -61.8712 -48.2937 -48.2922 -48.2922 -48.2909 -48.2908 -48.2895
   -48.2893 -48.2882 -48.2511 -48.2504 -48.2497 -48.2492 -48.2490 -48.2486
   -48.2479 -48.2474 -48.2284 -48.2269 -48.2267 -48.2256 -36.1449 -36.1434
   -36.0181 -36.0167 -35.9545 -35.9535 -13.4715 -13.4680 -13.1872 -13.1844
    -6.4569  -6.4532  -5.5418  -5.5385  -4.5226  -4.5195  -4.1631  -4.1601
    -3.9619  -3.9597  -3.2023  -3.2004  -0.8326  -0.8313   0.4693   0.4711
     0.9986   1.0001   1.8810   1.8859   3.2186   3.2297   5.5480

          k = 0.2500 0.4330 0.0000 ( 37711 PWs)   bands (ev):

   -61.8737 -61.8728 -48.2935 -48.2921 -48.2921 -48.2912 -48.2908 -48.2899
   -48.2897 -48.2885 -48.2510 -48.2503 -48.2496 -48.2492 -48.2489 -48.2486
   -48.2479 -48.2474 -48.2285 -48.2271 -48.2269 -48.2257 -36.1235 -36.1221
   -36.0191 -36.0177 -35.9581 -35.9571 -13.4872 -13.4840 -13.4270 -13.4241
    -5.9591  -5.9554  -5.4818  -5.4778  -4.4106  -4.4080  -4.2507  -4.2474
    -4.0462  -4.0428  -3.2769  -3.2756  -0.3358  -0.3312  -0.3131  -0.3110
     1.1405   1.1435   1.5427   1.5519   3.2113   3.2396   5.6612

          k = 0.2500 0.5052 0.0000 ( 37776 PWs)   bands (ev):

   -61.8718 -61.8709 -48.2932 -48.2918 -48.2917 -48.2912 -48.2904 -48.2899
   -48.2897 -48.2886 -48.2510 -48.2504 -48.2496 -48.2493 -48.2490 -48.2486
   -48.2480 -48.2474 -48.2283 -48.2269 -48.2267 -48.2255 -36.1260 -36.1246
   -36.0421 -36.0407 -35.9537 -35.9527 -13.3775 -13.3742 -13.2400 -13.2371
    -6.1068  -6.1032  -5.5335  -5.5297  -4.6701  -4.6666  -4.3877  -4.3854
    -3.9720  -3.9696  -3.5147  -3.5131  -0.4366  -0.4349   0.0595   0.0608
     0.9618   0.9633   1.8343   1.8437   3.1518   3.1581   5.7111

          k = 0.2500 0.5774 0.0000 ( 37791 PWs)   bands (ev):

   -61.8711 -61.8702 -48.2930 -48.2916 -48.2915 -48.2912 -48.2903 -48.2900
   -48.2897 -48.2886 -48.2510 -48.2505 -48.2496 -48.2493 -48.2491 -48.2486
   -48.2481 -48.2474 -48.2283 -48.2269 -48.2267 -48.2255 -36.1255 -36.1240
   -36.0517 -36.0502 -35.9522 -35.9512 -13.3389 -13.3355 -13.1701 -13.1672
    -6.1497  -6.1461  -5.5637  -5.5599  -4.8231  -4.8196  -4.2080  -4.2058
    -4.1882  -4.1862  -3.5155  -3.5137  -0.4872  -0.4860   0.3185   0.3188
     0.7546   0.7566   2.0559   2.0604   3.0160   3.0197   5.6515

          k = 0.3125 0.5413 0.0000 ( 37789 PWs)   bands (ev):

   -61.8707 -61.8698 -48.2925 -48.2917 -48.2911 -48.2910 -48.2903 -48.2902
   -48.2897 -48.2890 -48.2509 -48.2506 -48.2495 -48.2494 -48.2492 -48.2486
   -48.2481 -48.2474 -48.2282 -48.2268 -48.2266 -48.2254 -36.1080 -36.1065
   -36.0742 -36.0727 -35.9513 -35.9503 -13.2595 -13.2561 -13.1975 -13.1945
    -5.8455  -5.8419  -5.5734  -5.5695  -5.2627  -5.2593  -4.2210  -4.2191
    -3.8831  -3.8808  -3.8802  -3.8790  -0.1499  -0.1481   0.0278   0.0286
     0.6550   0.6572   2.2621   2.2701   2.8289   2.8329   5.6048

     the Fermi energy is    -0.2988 ev

!    total energy              =   -2326.92290022 Ry
     total all-electron energy =    -35628.670729 Ry
     estimated scf accuracy    <          3.5E-09 Ry
     smearing contrib. (-TS)   =       0.00089561 Ry
     internal energy E=F+TS    =   -2326.92379582 Ry

     The total energy is F=E-TS. E is the sum of the following terms:
     one-electron contribution =  -22236.72401913 Ry
     hartree contribution      =   11106.58434717 Ry
     xc contribution           =    -152.42390617 Ry
     ewald contribution        =    9966.15423834 Ry
     one-center paw contrib.   =   -1010.51445602 Ry

     convergence has been achieved in  22 iterations

     Writing all to output data dir ./tmp/cleave_018/mose2_cleave_018.save/ :
     XML data file, charge density, pseudopotentials, collected wavefunctions

     init_run     :     11.74s CPU     11.93s WALL (       1 calls)
     electrons    :    422.25s CPU    430.33s WALL (       1 calls)

     Called by init_run:
     wfcinit      :      5.35s CPU      5.37s WALL (       1 calls)
     potinit      :      5.75s CPU      5.80s WALL (       1 calls)
     hinit0       :      0.05s CPU      0.06s WALL (       1 calls)

     Called by electrons:
     c_bands      :    351.80s CPU    354.47s WALL (      23 calls)
     sum_band     :     46.58s CPU     48.97s WALL (      23 calls)
     v_of_rho     :     14.28s CPU     15.11s WALL (      23 calls)
     newd         :      8.41s CPU     10.66s WALL (      23 calls)
     PAW_pot      :      1.42s CPU      1.46s WALL (      23 calls)
     mix_rho      :      5.64s CPU      5.67s WALL (      23 calls)
     vdW_kernel   :      5.27s CPU      5.28s WALL (       1 calls)

     Called by c_bands:
     init_us_2    :      3.06s CPU      3.07s WALL (    1410 calls)
     cegterg      :    344.45s CPU    347.01s WALL (     690 calls)

     Called by *egterg:
     cdiaghg      :     10.35s CPU     10.37s WALL (    2837 calls)
     h_psi        :    153.73s CPU    154.59s WALL (    2897 calls)
     s_psi        :     33.29s CPU     33.31s WALL (    2897 calls)
     g_psi        :      0.59s CPU      0.59s WALL (    2177 calls)

     Called by h_psi:
     h_psi:calbec :     44.39s CPU     44.73s WALL (    2897 calls)
     vloc_psi     :     67.03s CPU     67.51s WALL (    2897 calls)
                                        0.00s GPU  (    2897 calls)
     add_vuspsi   :     41.71s CPU     41.75s WALL (    2897 calls)

     General routines
     calbec       :     63.66s CPU     64.12s WALL (    3587 calls)
     fft          :      5.06s CPU      5.15s WALL (    1448 calls)
     ffts         :      2.01s CPU      2.02s WALL (    2629 calls)
     fftw         :     73.14s CPU     73.65s WALL (  207450 calls)
     interpolate  :      0.10s CPU      0.10s WALL (      23 calls)

     Parallel routines

     PWSCF        :   7m14.61s CPU   7m23.04s WALL


   This run was terminated on:  11:14:18  20Jun2026            

=------------------------------------------------------------------------------=
   JOB DONE.
=------------------------------------------------------------------------------=
Note: The following floating-point exceptions are signalling: IEEE_UNDERFLOW_FLAG IEEE_DENORMAL
Note: The following floating-point exceptions are signalling: IEEE_UNDERFLOW_FLAG IEEE_DENORMAL
Note: The following floating-point exceptions are signalling: IEEE_UNDERFLOW_FLAG IEEE_DENORMAL
Note: The following floating-point exceptions are signalling: IEEE_UNDERFLOW_FLAG IEEE_DENORMAL
Note: The following floating-point exceptions are signalling: IEEE_UNDERFLOW_FLAG IEEE_DENORMAL
Note: The following floating-point exceptions are signalling: IEEE_UNDERFLOW_FLAG IEEE_DENORMAL
Note: The following floating-point exceptions are signalling: IEEE_UNDERFLOW_FLAG IEEE_DENORMAL
Note: The following floating-point exceptions are signalling: IEEE_UNDERFLOW_FLAG IEEE_DENORMAL
Note: The following floating-point exceptions are signalling: IEEE_UNDERFLOW_FLAG IEEE_DENORMAL
Note: The following floating-point exceptions are signalling: IEEE_UNDERFLOW_FLAG IEEE_DENORMAL
Note: The following floating-point exceptions are signalling: IEEE_UNDERFLOW_FLAG IEEE_DENORMAL
Note: The following floating-point exceptions are signalling: IEEE_UNDERFLOW_FLAG IEEE_DENORMAL
Note: The following floating-point exceptions are signalling: IEEE_UNDERFLOW_FLAG IEEE_DENORMAL
Note: The following floating-point exceptions are signalling: IEEE_UNDERFLOW_FLAG IEEE_DENORMAL
Note: The following floating-point exceptions are signalling: IEEE_UNDERFLOW_FLAG IEEE_DENORMAL
Note: The following floating-point exceptions are signalling: IEEE_UNDERFLOW_FLAG IEEE_DENORMAL
Note: The following floating-point exceptions are signalling: IEEE_UNDERFLOW_FLAG IEEE_DENORMAL
Note: The following floating-point exceptions are signalling: IEEE_UNDERFLOW_FLAG IEEE_DENORMAL
Note: The following floating-point exceptions are signalling: IEEE_UNDERFLOW_FLAG IEEE_DENORMAL
Note: The following floating-point exceptions are signalling: IEEE_UNDERFLOW_FLAG IEEE_DENORMAL
Note: The following floating-point exceptions are signalling: IEEE_UNDERFLOW_FLAG IEEE_DENORMAL
Note: The following floating-point exceptions are signalling: IEEE_UNDERFLOW_FLAG IEEE_DENORMAL
Note: The following floating-point exceptions are signalling: IEEE_UNDERFLOW_FLAG IEEE_DENORMAL
Note: The following floating-point exceptions are signalling: IEEE_UNDERFLOW_FLAG IEEE_DENORMAL
