
     Program PWSCF v.7.5 starts on 20Jun2026 at 13:12:24 

     This program is part of the open-source Quantum ESPRESSO suite
     for quantum simulation of materials; please cite
         "P. Giannozzi et al., J. Phys.:Condens. Matter 21 395502 (2009);
         "P. Giannozzi et al., J. Phys.:Condens. Matter 29 465901 (2017);
         "P. Giannozzi et al., J. Chem. Phys. 152 154105 (2020);
          URL http://www.quantum-espresso.org", 
     in publications or presentations arising from this work. More details at
     http://www.quantum-espresso.org/quote

     Parallel version (MPI), running on    24 processors

     MPI processes distributed on     1 nodes
     24371 MiB available memory on the printing compute node when the environment starts

     Waiting for input...
     Reading input from standard input

     Current dimensions of program PWSCF are:
     Max number of different atomic species (ntypx) = 10
     Max number of k-points (npk) =  40000
     Max angular momentum in pseudopotentials (lmaxx) =  4
     file Mo.pbe-spn-kjpaw_psl.1.0.0.UPF: wavefunction(s)  4S 4D renormalized
     file Se.pbe-dn-kjpaw_psl.1.0.0.UPF: wavefunction(s)  4S 4P 3D renormalized

     IMPORTANT: XC functional enforced from input :
     Exchange-correlation= VDW-DF2-B86R
                           (   1   4  26   0   2   0   0)
     Any further DFT definition will be discarded
     Please, verify this is what you really want


     R & G space division:  proc/nbgrp/npool/nimage =      24
     Subspace diagonalization in iterative solution of the eigenvalue problem:
     a serial algorithm will be used


     Parallelization info
     --------------------
     sticks:   dense  smooth     PW     G-vecs:    dense   smooth      PW
     Min          69      35     10                35537    12585    1924
     Max          70      36     11                35620    12648    1981
     Sum        1675     847    241               853823   302525   46513

     Using Slab Decomposition



     bravais-lattice index     =            4
     lattice parameter (alat)  =       6.1794  a.u.
     unit-cell volume          =    3124.5879 (a.u.)^3
     number of atoms/cell      =            6
     number of atomic types    =            2
     number of electrons       =        92.00
     number of Kohn-Sham states=           55
     kinetic-energy cutoff     =      80.0000  Ry
     charge density cutoff     =     640.0000  Ry
     scf convergence threshold =      1.0E-08
     mixing beta               =       0.3000
     number of iterations used =            8  local-TF  mixing
     Exchange-correlation= VDW-DF2-B86R
                           (   1   4  26   0   2   0   0)

     celldm(1)=   6.179404  celldm(2)=   0.000000  celldm(3)=  15.290520
     celldm(4)=   0.000000  celldm(5)=   0.000000  celldm(6)=   0.000000

     crystal axes: (cart. coord. in units of alat)
               a(1) = (   1.000000   0.000000   0.000000 )  
               a(2) = (  -0.500000   0.866025   0.000000 )  
               a(3) = (   0.000000   0.000000  15.290520 )  

     reciprocal axes: (cart. coord. in units 2 pi/alat)
               b(1) = (  1.000000  0.577350 -0.000000 )  
               b(2) = (  0.000000  1.154701  0.000000 )  
               b(3) = (  0.000000 -0.000000  0.065400 )  


     PseudoPot. # 1 for Mo read from file:
     ./pseudo/Mo.pbe-spn-kjpaw_psl.1.0.0.UPF
     MD5 check sum: 4396e0c640fcce5c25f020efccf1ab12
     Pseudo is Projector augmented-wave + core cor, Zval = 14.0
     Generated using &quot;atomic&quot; code by A. Dal Corso  v.6.3
     Shape of augmentation charge: PSQ
     Using radial grid of 1229 points,  6 beta functions with: 
                l(1) =   0
                l(2) =   0
                l(3) =   1
                l(4) =   1
                l(5) =   2
                l(6) =   2
     Q(r) pseudized with 0 coefficients 


     PseudoPot. # 2 for Se read from file:
     ./pseudo/Se.pbe-dn-kjpaw_psl.1.0.0.UPF
     MD5 check sum: ac240dd2bae32a30e0bf3a38df9c8785
     Pseudo is Projector augmented-wave + core cor, Zval = 16.0
     Generated using &quot;atomic&quot; code by A. Dal Corso  v.6.3
     Shape of augmentation charge: PSQ
     Using radial grid of 1211 points,  6 beta functions with: 
                l(1) =   0
                l(2) =   0
                l(3) =   1
                l(4) =   1
                l(5) =   2
                l(6) =   2
     Q(r) pseudized with 0 coefficients 


     atomic species   valence    mass     pseudopotential
     Mo               14.00    95.96000     Mo( 1.00)
     Se               16.00    78.96000     Se( 1.00)

      6 Sym. Ops. (no inversion) found



   Cartesian axes

     site n.     atom                  positions (alat units)
         1        Se     tau(   1) = (  -0.0000005   0.5773506   6.1238532  )
         2        Mo     tau(   2) = (   0.0000000   0.0000000   6.6502752  )
         3        Se     tau(   3) = (   0.5000005   0.2886748   7.1775994  )
         4        Se     tau(   4) = (  -0.0000005   0.5773506  10.1918502  )
         5        Mo     tau(   5) = (   0.5000005   0.2886748  10.7190367  )
         6        Se     tau(   6) = (   0.0000000   0.0000000  11.2461774  )

     number of k points=    30  Methfessel-Paxton smearing, width (Ry)=  0.0200
                       cart. coord. in units 2pi/alat
        k(    1) = (   0.0000000   0.0000000   0.0000000), wk =   0.0078125
        k(    2) = (   0.0000000   0.0721688   0.0000000), wk =   0.0468750
        k(    3) = (   0.0000000   0.1443376   0.0000000), wk =   0.0468750
        k(    4) = (   0.0000000   0.2165064   0.0000000), wk =   0.0468750
        k(    5) = (   0.0000000   0.2886751   0.0000000), wk =   0.0468750
        k(    6) = (   0.0000000   0.3608439   0.0000000), wk =   0.0468750
        k(    7) = (   0.0000000   0.4330127   0.0000000), wk =   0.0468750
        k(    8) = (   0.0000000   0.5051815   0.0000000), wk =   0.0468750
        k(    9) = (   0.0000000  -0.5773503   0.0000000), wk =   0.0234375
        k(   10) = (   0.0625000   0.1082532   0.0000000), wk =   0.0468750
        k(   11) = (   0.0625000   0.1804220   0.0000000), wk =   0.0937500
        k(   12) = (   0.0625000   0.2525907   0.0000000), wk =   0.0937500
        k(   13) = (   0.0625000   0.3247595   0.0000000), wk =   0.0937500
        k(   14) = (   0.0625000   0.3969283   0.0000000), wk =   0.0937500
        k(   15) = (   0.0625000   0.4690971   0.0000000), wk =   0.0937500
        k(   16) = (   0.0625000   0.5412659   0.0000000), wk =   0.0937500
        k(   17) = (   0.1250000   0.2165064   0.0000000), wk =   0.0468750
        k(   18) = (   0.1250000   0.2886751   0.0000000), wk =   0.0937500
        k(   19) = (   0.1250000   0.3608439   0.0000000), wk =   0.0937500
        k(   20) = (   0.1250000   0.4330127   0.0000000), wk =   0.0937500
        k(   21) = (   0.1250000   0.5051815   0.0000000), wk =   0.0937500
        k(   22) = (   0.1250000   0.5773503   0.0000000), wk =   0.0468750
        k(   23) = (   0.1875000   0.3247595   0.0000000), wk =   0.0468750
        k(   24) = (   0.1875000   0.3969283   0.0000000), wk =   0.0937500
        k(   25) = (   0.1875000   0.4690971   0.0000000), wk =   0.0937500
        k(   26) = (   0.1875000   0.5412659   0.0000000), wk =   0.0937500
        k(   27) = (   0.2500000   0.4330127   0.0000000), wk =   0.0468750
        k(   28) = (   0.2500000   0.5051815   0.0000000), wk =   0.0937500
        k(   29) = (   0.2500000   0.5773503   0.0000000), wk =   0.0468750
        k(   30) = (   0.3125000   0.5412659   0.0000000), wk =   0.0468750

     Dense  grid:   853823 G-vectors     FFT dimensions: (  50,  50, 768)

     Smooth grid:   302525 G-vectors     FFT dimensions: (  36,  36, 540)

     Estimated max dynamical RAM per process >     171.88 MB

     Estimated total dynamical RAM >       4.03 GB

     Initial potential from superposition of free atoms

     starting charge      91.9979, renormalised to      92.0000

     negative rho (up, down):  1.655E-04 0.000E+00


     %%%%%%%%%%%%%%%%%%%%%%%%%%%%%%%%%%%%%%%%%%%%%%%%%%%%%%%%%%%%%%%%%%%%%%%%
     %                                                                      %
     % You are using vdW-DF, which was implemented by the Thonhauser group. %
     % Please cite the following two papers that made this development      %
     % possible and the two reviews that describe the various versions:     %
     %                                                                      %
     %   T. Thonhauser et al., PRL 115, 136402 (2015).                      %
     %   T. Thonhauser et al., PRB 76, 125112 (2007).                       %
     %   K. Berland et al., Rep. Prog. Phys. 78, 066501 (2015).             %
     %   D.C. Langreth et al., J. Phys.: Condens. Matter 21, 084203 (2009). %
     %                                                                      %
     % If you are calculating stress with vdW-DF, please also cite:         %
     %                                                                      %
     %   R. Sabatini et al., J. Phys.: Condens. Matter 24, 424209 (2012).   %
     %                                                                      %
     %%%%%%%%%%%%%%%%%%%%%%%%%%%%%%%%%%%%%%%%%%%%%%%%%%%%%%%%%%%%%%%%%%%%%%%%

     %%%%%%%%%%%%%%%%%%%%%%%%%%%%%%%%%%%%%%%%%%%%%%%%%%%%%%%%%%%%%%%%%%%%%%%%
     %                                                                      %
     %  vdW-DF NEWS:                                                        %
     %                                                                      %
     %  * vdW-DF3 is now available. DOI: 10.1021/acs.jctc.0c00471           %
     %    use with input_dft = 'vdW-DF3-opt1' or 'vdW-DF3-opt2'             %
     %                                                                      %
     %  * Unscreened and range-separated hybrid vdW-DF-cx functionals       %
     %    DOI: 10.1063/1.4986522 and 10.1088/1361-648X/ac2ad2               %
     %    use with input_dft = 'vdW-DF-cx0'    and 'vdW-DF-ahcx'            %
     %  * Unscreened and range-separated hybrid vdW-DF2-b86r functionals    %
     %    DOI: 10.1063/1.4986522 and DOI: 10.1103/PhysRevX.12.041003        %
     %    use with input_dft = 'vdW-DF2-br0' and 'vdW-DF2-ahbr'             %
     %                                                                      %
     %%%%%%%%%%%%%%%%%%%%%%%%%%%%%%%%%%%%%%%%%%%%%%%%%%%%%%%%%%%%%%%%%%%%%%%%


     Starting wfcs are   56 randomized atomic wfcs
     Checking if some PAW data can be deallocated... 

     total cpu time spent up to now is       12.1 secs

     per-process dynamical memory:    79.7 Mb

     Self-consistent Calculation

     iteration #  1     ecut=    80.00 Ry     beta= 0.30
     Davidson diagonalization with overlap
     ethr =  1.00E-02,  avg # of iterations =  4.4

     Threshold (ethr) on eigenvalues was too large:
     Diagonalizing with lowered threshold

     Davidson diagonalization with overlap
     ethr =  4.50E-04,  avg # of iterations =  2.0

     negative rho (up, down):  7.403E-05 0.000E+00

     total cpu time spent up to now is       51.1 secs

     total energy              =   -2326.96298233 Ry
     estimated scf accuracy    <       0.46091124 Ry

     iteration #  2     ecut=    80.00 Ry     beta= 0.30
     Davidson diagonalization with overlap
     ethr =  5.01E-04,  avg # of iterations =  1.3

     negative rho (up, down):  8.103E-05 0.000E+00

     total cpu time spent up to now is       67.8 secs

     total energy              =   -2326.91583372 Ry
     estimated scf accuracy    <       0.24586401 Ry

     iteration #  3     ecut=    80.00 Ry     beta= 0.30
     Davidson diagonalization with overlap
     ethr =  2.67E-04,  avg # of iterations =  5.7

     negative rho (up, down):  2.205E-05 0.000E+00

     total cpu time spent up to now is       87.1 secs

     total energy              =   -2326.92282305 Ry
     estimated scf accuracy    <       0.03227209 Ry

     iteration #  4     ecut=    80.00 Ry     beta= 0.30
     Davidson diagonalization with overlap
     c_bands:  1 eigenvalues not converged
     ethr =  3.51E-05,  avg # of iterations =  7.1

     negative rho (up, down):  6.078E-06 0.000E+00

     total cpu time spent up to now is      108.2 secs

     total energy              =   -2326.92299559 Ry
     estimated scf accuracy    <       0.01054672 Ry

     iteration #  5     ecut=    80.00 Ry     beta= 0.30
     Davidson diagonalization with overlap
     c_bands:  1 eigenvalues not converged
     ethr =  1.15E-05,  avg # of iterations =  4.1

     negative rho (up, down):  3.970E-07 0.000E+00

     total cpu time spent up to now is      128.4 secs

     total energy              =   -2326.92200792 Ry
     estimated scf accuracy    <       0.00452895 Ry

     iteration #  6     ecut=    80.00 Ry     beta= 0.30
     Davidson diagonalization with overlap
     c_bands:  1 eigenvalues not converged
     ethr =  4.92E-06,  avg # of iterations =  6.4

     negative rho (up, down):  1.162E-07 0.000E+00

     total cpu time spent up to now is      150.1 secs

     total energy              =   -2326.92199761 Ry
     estimated scf accuracy    <       0.00160366 Ry

     iteration #  7     ecut=    80.00 Ry     beta= 0.30
     Davidson diagonalization with overlap
     c_bands:  1 eigenvalues not converged
     c_bands:  1 eigenvalues not converged
     ethr =  1.74E-06,  avg # of iterations =  5.1

     negative rho (up, down):  1.372E-06 0.000E+00

     total cpu time spent up to now is      168.6 secs

     total energy              =   -2326.92174456 Ry
     estimated scf accuracy    <       0.00136585 Ry

     iteration #  8     ecut=    80.00 Ry     beta= 0.30
     Davidson diagonalization with overlap
     ethr =  1.48E-06,  avg # of iterations =  7.9

     negative rho (up, down):  9.894E-07 0.000E+00

     total cpu time spent up to now is      188.7 secs

     total energy              =   -2326.92174585 Ry
     estimated scf accuracy    <       0.00077658 Ry

     iteration #  9     ecut=    80.00 Ry     beta= 0.30
     Davidson diagonalization with overlap
     ethr =  8.44E-07,  avg # of iterations =  2.5

     negative rho (up, down):  2.394E-03 0.000E+00

     total cpu time spent up to now is      206.1 secs

     total energy              =   -2326.92182503 Ry
     estimated scf accuracy    <       0.00056992 Ry

     iteration # 10     ecut=    80.00 Ry     beta= 0.30
     Davidson diagonalization with overlap
     ethr =  6.19E-07,  avg # of iterations =  7.1

     negative rho (up, down):  3.314E-03 0.000E+00

     total cpu time spent up to now is      226.1 secs

     total energy              =   -2326.92178316 Ry
     estimated scf accuracy    <       0.00046906 Ry

     iteration # 11     ecut=    80.00 Ry     beta= 0.30
     Davidson diagonalization with overlap
     ethr =  5.10E-07,  avg # of iterations =  2.1

     negative rho (up, down):  3.824E-03 0.000E+00

     total cpu time spent up to now is      243.1 secs

     total energy              =   -2326.92174285 Ry
     estimated scf accuracy    <       0.00038751 Ry

     iteration # 12     ecut=    80.00 Ry     beta= 0.30
     Davidson diagonalization with overlap
     ethr =  4.21E-07,  avg # of iterations =  2.4

     negative rho (up, down):  4.182E-03 0.000E+00

     total cpu time spent up to now is      260.3 secs

     total energy              =   -2326.92167209 Ry
     estimated scf accuracy    <       0.00031665 Ry

     iteration # 13     ecut=    80.00 Ry     beta= 0.30
     Davidson diagonalization with overlap
     ethr =  3.44E-07,  avg # of iterations =  7.1

     negative rho (up, down):  4.704E-03 0.000E+00

     total cpu time spent up to now is      278.6 secs

     total energy              =   -2326.92154244 Ry
     estimated scf accuracy    <       0.00017722 Ry

     iteration # 14     ecut=    80.00 Ry     beta= 0.30
     Davidson diagonalization with overlap
     ethr =  1.93E-07,  avg # of iterations =  8.2

     negative rho (up, down):  3.691E-03 0.000E+00

     total cpu time spent up to now is      298.5 secs

     total energy              =   -2326.92160622 Ry
     estimated scf accuracy    <       0.00005381 Ry

     iteration # 15     ecut=    80.00 Ry     beta= 0.30
     Davidson diagonalization with overlap
     ethr =  5.85E-08,  avg # of iterations =  2.4

     negative rho (up, down):  1.628E-03 0.000E+00

     total cpu time spent up to now is      316.0 secs

     total energy              =   -2326.92168736 Ry
     estimated scf accuracy    <       0.00002785 Ry

     iteration # 16     ecut=    80.00 Ry     beta= 0.30
     Davidson diagonalization with overlap
     ethr =  3.03E-08,  avg # of iterations =  5.5

     negative rho (up, down):  1.045E-03 0.000E+00

     total cpu time spent up to now is      340.1 secs

     total energy              =   -2326.92170419 Ry
     estimated scf accuracy    <       0.00000548 Ry

     iteration # 17     ecut=    80.00 Ry     beta= 0.30
     Davidson diagonalization with overlap
     ethr =  5.96E-09,  avg # of iterations =  2.4

     negative rho (up, down):  6.211E-04 0.000E+00

     total cpu time spent up to now is      358.8 secs

     total energy              =   -2326.92171262 Ry
     estimated scf accuracy    <       0.00000323 Ry

     iteration # 18     ecut=    80.00 Ry     beta= 0.30
     Davidson diagonalization with overlap
     ethr =  3.51E-09,  avg # of iterations =  7.1

     negative rho (up, down):  4.224E-04 0.000E+00

     total cpu time spent up to now is      381.0 secs

     total energy              =   -2326.92171453 Ry
     estimated scf accuracy    <       0.00000125 Ry

     iteration # 19     ecut=    80.00 Ry     beta= 0.30
     Davidson diagonalization with overlap
     ethr =  1.36E-09,  avg # of iterations =  1.3

     negative rho (up, down):  2.707E-04 0.000E+00

     total cpu time spent up to now is      397.1 secs

     total energy              =   -2326.92171658 Ry
     estimated scf accuracy    <       0.00000081 Ry

     iteration # 20     ecut=    80.00 Ry     beta= 0.30
     Davidson diagonalization with overlap
     ethr =  8.80E-10,  avg # of iterations =  2.5

     negative rho (up, down):  3.360E-04 0.000E+00

     total cpu time spent up to now is      415.5 secs

     total energy              =   -2326.92171505 Ry
     estimated scf accuracy    <       0.00000033 Ry

     iteration # 21     ecut=    80.00 Ry     beta= 0.30
     Davidson diagonalization with overlap
     ethr =  3.55E-10,  avg # of iterations =  2.4

     negative rho (up, down):  2.543E-04 0.000E+00

     total cpu time spent up to now is      434.1 secs

     total energy              =   -2326.92171637 Ry
     estimated scf accuracy    <       0.00000010 Ry

     iteration # 22     ecut=    80.00 Ry     beta= 0.30
     Davidson diagonalization with overlap
     ethr =  1.14E-10,  avg # of iterations =  2.3

     negative rho (up, down):  2.376E-04 0.000E+00

     total cpu time spent up to now is      453.5 secs

     total energy              =   -2326.92171682 Ry
     estimated scf accuracy    <       0.00000003 Ry

     iteration # 23     ecut=    80.00 Ry     beta= 0.30
     Davidson diagonalization with overlap
     ethr =  2.72E-11,  avg # of iterations =  2.3

     negative rho (up, down):  2.008E-04 0.000E+00

     total cpu time spent up to now is      472.6 secs

     total energy              =   -2326.92171646 Ry
     estimated scf accuracy    <       0.00000001 Ry

     iteration # 24     ecut=    80.00 Ry     beta= 0.30
     Davidson diagonalization with overlap
     ethr =  1.13E-11,  avg # of iterations =  2.7

     negative rho (up, down):  1.949E-04 0.000E+00

     total cpu time spent up to now is      491.5 secs

     End of self-consistent calculation

          k = 0.0000 0.0000 0.0000 ( 37787 PWs)   bands (ev):

   -61.8953 -61.8944 -48.2903 -48.2903 -48.2900 -48.2900 -48.2888 -48.2888
   -48.2886 -48.2886 -48.2448 -48.2448 -48.2444 -48.2444 -48.2433 -48.2433
   -48.2431 -48.2431 -48.2261 -48.2256 -48.2247 -48.2244 -36.0138 -36.0127
   -35.8984 -35.8984 -35.8971 -35.8971 -15.2933 -15.2899 -14.4752 -14.4736
    -6.4364  -6.4334  -3.3598  -3.3598  -3.3537  -3.3537  -3.3355  -3.3351
    -1.5892  -1.5879  -1.0635  -1.0635  -1.0606  -1.0606   0.2297   0.2297
     0.2326   0.2326   2.9483   2.9483   2.9503   2.9504   3.1717

          k = 0.0000 0.0722 0.0000 ( 37755 PWs)   bands (ev):

   -61.8944 -61.8935 -48.2903 -48.2902 -48.2900 -48.2898 -48.2888 -48.2887
   -48.2886 -48.2884 -48.2449 -48.2448 -48.2445 -48.2444 -48.2434 -48.2433
   -48.2432 -48.2431 -48.2260 -48.2255 -48.2246 -48.2243 -36.0116 -36.0105
   -35.9091 -35.9077 -35.9009 -35.8995 -15.2366 -15.2331 -14.4457 -14.4441
    -6.3587  -6.3556  -3.8323  -3.8284  -3.3279  -3.3217  -2.9323  -2.9302
    -1.6273  -1.6265  -1.2532  -1.2503  -1.2105  -1.2074   0.1222   0.1243
     0.3428   0.3453   2.6255   2.6309   2.8996   2.9017   3.2782

          k = 0.0000 0.1443 0.0000 ( 37697 PWs)   bands (ev):

   -61.8916 -61.8907 -48.2903 -48.2900 -48.2896 -48.2892 -48.2888 -48.2886
   -48.2881 -48.2878 -48.2451 -48.2449 -48.2446 -48.2445 -48.2436 -48.2435
   -48.2433 -48.2431 -48.2258 -48.2253 -48.2243 -48.2240 -36.0052 -36.0041
   -35.9392 -35.9378 -35.9078 -35.9065 -15.0702 -15.0668 -14.3595 -14.3578
    -6.1334  -6.1304  -4.3181  -4.3138  -3.2525  -3.2465  -2.7129  -2.7114
    -2.0765  -2.0743  -1.4980  -1.4946  -1.4548  -1.4542   0.0038   0.0050
     0.5334   0.5352   2.0319   2.0367   2.7999   2.8018   3.5358

          k = 0.0000 0.2165 0.0000 ( 37653 PWs)   bands (ev):

   -61.8875 -61.8866 -48.2903 -48.2899 -48.2888 -48.2887 -48.2886 -48.2884
   -48.2873 -48.2870 -48.2454 -48.2450 -48.2447 -48.2445 -48.2440 -48.2436
   -48.2434 -48.2432 -48.2254 -48.2249 -48.2239 -48.2236 -35.9960 -35.9949
   -35.9836 -35.9823 -35.9182 -35.9168 -14.8073 -14.8040 -14.2232 -14.2212
    -5.7928  -5.7897  -4.7476  -4.7430  -3.2569  -3.2539  -3.2009  -3.1950
    -2.4339  -2.4332  -1.7217  -1.7180  -1.5558  -1.5553  -0.0272  -0.0266
     0.6398   0.6411   1.6705   1.6748   2.7345   2.7362   3.9056

          k = 0.0000 0.2887 0.0000 ( 37721 PWs)   bands (ev):

   -61.8827 -61.8818 -48.2903 -48.2899 -48.2888 -48.2885 -48.2879 -48.2876
   -48.2864 -48.2862 -48.2458 -48.2452 -48.2449 -48.2446 -48.2444 -48.2438
   -48.2436 -48.2432 -48.2249 -48.2244 -48.2235 -48.2232 -36.0367 -36.0353
   -35.9840 -35.9830 -35.9304 -35.9290 -14.4741 -14.4708 -14.0453 -14.0431
    -5.4813  -5.4778  -4.9875  -4.9835  -4.2789  -4.2755  -3.2553  -3.2497
    -2.6193  -2.6192  -1.8088  -1.8082  -1.7653  -1.7613   0.0541   0.0548
     0.6448   0.6459   1.7771   1.7816   2.7357   2.7375   4.3796

          k = 0.0000 0.3608 0.0000 ( 37749 PWs)   bands (ev):

   -61.8778 -61.8769 -48.2903 -48.2898 -48.2888 -48.2884 -48.2870 -48.2867
   -48.2855 -48.2853 -48.2462 -48.2453 -48.2451 -48.2448 -48.2446 -48.2439
   -48.2437 -48.2433 -48.2245 -48.2240 -48.2230 -48.2227 -36.0887 -36.0872
   -35.9727 -35.9717 -35.9425 -35.9412 -14.1258 -14.1226 -13.8259 -13.8234
    -5.5981  -5.5939  -5.2363  -5.2332  -4.7233  -4.7202  -3.4039  -3.3985
    -2.9795  -2.9794  -2.0742  -2.0734  -1.6601  -1.6561   0.3136   0.3141
     0.6218   0.6230   2.1960   2.2004   2.7722   2.7743   4.9301

          k = 0.0000 0.4330 0.0000 ( 37785 PWs)   bands (ev):

   -61.8737 -61.8728 -48.2904 -48.2897 -48.2889 -48.2883 -48.2862 -48.2859
   -48.2847 -48.2845 -48.2466 -48.2455 -48.2452 -48.2452 -48.2447 -48.2440
   -48.2439 -48.2433 -48.2241 -48.2236 -48.2227 -48.2223 -36.1324 -36.1309
   -35.9631 -35.9621 -35.9528 -35.9515 -13.8619 -13.8585 -13.5469 -13.5444
    -6.1986  -6.1947  -5.5762  -5.5730  -4.5336  -4.5310  -3.5631  -3.5578
    -3.2339  -3.2332  -2.2476  -2.2469  -1.5264  -1.5227   0.6363   0.6381
     0.6786   0.6789   2.7118   2.7157   2.8087   2.8110   5.1598

          k = 0.0000 0.5052 0.0000 ( 37822 PWs)   bands (ev):

   -61.8709 -61.8700 -48.2904 -48.2897 -48.2889 -48.2882 -48.2857 -48.2854
   -48.2842 -48.2840 -48.2468 -48.2455 -48.2454 -48.2453 -48.2447 -48.2441
   -48.2440 -48.2434 -48.2239 -48.2233 -48.2224 -48.2221 -36.1615 -36.1600
   -35.9597 -35.9583 -35.9566 -35.9556 -13.7167 -13.7131 -13.2851 -13.2826
    -6.7561  -6.7523  -5.5974  -5.5949  -4.7007  -4.6983  -3.6751  -3.6699
    -3.1139  -3.1125  -2.3758  -2.3752  -1.4392  -1.4359   0.6855   0.6877
     1.0199   1.0200   2.8312   2.8337   3.1593   3.1623   4.6769

          k = 0.0000-0.5774 0.0000 ( 37832 PWs)   bands (ev):

   -61.8700 -61.8691 -48.2904 -48.2896 -48.2890 -48.2882 -48.2856 -48.2852
   -48.2840 -48.2838 -48.2469 -48.2456 -48.2455 -48.2454 -48.2447 -48.2441
   -48.2440 -48.2434 -48.2238 -48.2232 -48.2223 -48.2220 -36.1716 -36.1701
   -35.9621 -35.9607 -35.9544 -35.9534 -13.6692 -13.6655 -13.1785 -13.1760
    -6.9613  -6.9575  -5.5678  -5.5658  -4.8435  -4.8409  -3.7148  -3.7096
    -2.9853  -2.9837  -2.4442  -2.4437  -1.4115  -1.4084   0.7130   0.7155
     1.1667   1.1668   2.8385   2.8411   3.3797   3.3819   4.3510

          k = 0.0625 0.1083 0.0000 ( 37709 PWs)   bands (ev):

   -61.8925 -61.8916 -48.2903 -48.2899 -48.2898 -48.2894 -48.2888 -48.2886
   -48.2883 -48.2880 -48.2450 -48.2449 -48.2445 -48.2445 -48.2435 -48.2434
   -48.2432 -48.2431 -48.2259 -48.2253 -48.2244 -48.2241 -36.0072 -36.0062
   -35.9291 -35.9278 -35.9059 -35.9045 -15.1249 -15.1215 -14.3879 -14.3862
    -6.2067  -6.2037  -4.1892  -4.1849  -3.2814  -3.2753  -2.7333  -2.7317
    -1.8756  -1.8740  -1.4982  -1.4948  -1.3796  -1.3785   0.0642   0.0657
     0.4331   0.4350   2.2595   2.2648   2.7558   2.7578   3.4575

          k = 0.0625 0.1804 0.0000 ( 37703 PWs)   bands (ev):

   -61.8891 -61.8882 -48.2902 -48.2899 -48.2892 -48.2888 -48.2887 -48.2885
   -48.2877 -48.2874 -48.2453 -48.2450 -48.2447 -48.2445 -48.2439 -48.2435
   -48.2433 -48.2432 -48.2255 -48.2250 -48.2241 -48.2238 -35.9993 -35.9982
   -35.9657 -35.9644 -35.9153 -35.9140 -14.9099 -14.9065 -14.2768 -14.2749
    -5.9188  -5.9157  -4.6029  -4.5984  -3.2757  -3.2699  -2.8100  -2.8078
    -2.4527  -2.4505  -1.7529  -1.7498  -1.4114  -1.4109   0.0638   0.0646
     0.4338   0.4349   1.9397   1.9444   2.5820   2.5837   3.7661

          k = 0.0625 0.2526 0.0000 ( 37702 PWs)   bands (ev):

   -61.8846 -61.8837 -48.2902 -48.2899 -48.2887 -48.2885 -48.2883 -48.2880
   -48.2868 -48.2866 -48.2456 -48.2451 -48.2448 -48.2446 -48.2442 -48.2437
   -48.2435 -48.2432 -48.2251 -48.2246 -48.2237 -48.2234 -36.0135 -36.0121
   -35.9886 -35.9876 -35.9277 -35.9264 -14.6098 -14.6065 -14.1207 -14.1186
    -5.5512  -5.5481  -4.9471  -4.9426  -3.8347  -3.8310  -3.2215  -3.2168
    -2.5985  -2.5969  -1.9628  -1.9605  -1.4429  -1.4418  -0.0001   0.0003
     0.5138   0.5147   1.8323   1.8361   2.5532   2.5552   4.1866

          k = 0.0625 0.3248 0.0000 ( 37734 PWs)   bands (ev):

   -61.8797 -61.8789 -48.2902 -48.2898 -48.2887 -48.2883 -48.2874 -48.2871
   -48.2859 -48.2857 -48.2460 -48.2453 -48.2450 -48.2447 -48.2446 -48.2438
   -48.2436 -48.2433 -48.2247 -48.2242 -48.2232 -48.2229 -36.0644 -36.0630
   -35.9774 -35.9764 -35.9411 -35.9398 -14.2614 -14.2582 -13.9272 -13.9248
    -5.4443  -5.4401  -4.9233  -4.9203  -4.7790  -4.7753  -3.4610  -3.4565
    -2.7241  -2.7229  -2.2779  -2.2757  -1.4328  -1.4307   0.0505   0.0508
     0.6625   0.6632   1.9688   1.9719   2.6460   2.6487   4.7068

          k = 0.0625 0.3969 0.0000 ( 37770 PWs)   bands (ev):

   -61.8753 -61.8744 -48.2902 -48.2897 -48.2887 -48.2882 -48.2866 -48.2863
   -48.2851 -48.2849 -48.2464 -48.2454 -48.2451 -48.2450 -48.2447 -48.2440
   -48.2438 -48.2434 -48.2243 -48.2237 -48.2228 -48.2225 -36.1111 -36.1097
   -35.9670 -35.9659 -35.9534 -35.9521 -13.9452 -13.9420 -13.6830 -13.6804
    -5.8143  -5.8103  -5.4801  -5.4767  -4.5578  -4.5549  -3.7061  -3.7020
    -2.9882  -2.9868  -2.4960  -2.4939  -1.3649  -1.3625   0.2473   0.2477
     0.8194   0.8203   2.2556   2.2578   2.8185   2.8219   5.2506

          k = 0.0625 0.4691 0.0000 ( 37798 PWs)   bands (ev):

   -61.8718 -61.8709 -48.2903 -48.2896 -48.2888 -48.2881 -48.2860 -48.2857
   -48.2845 -48.2843 -48.2467 -48.2456 -48.2453 -48.2452 -48.2448 -48.2442
   -48.2438 -48.2434 -48.2239 -48.2234 -48.2225 -48.2222 -36.1466 -36.1452
   -35.9632 -35.9619 -35.9585 -35.9575 -13.7477 -13.7443 -13.3974 -13.3948
    -6.4693  -6.4655  -5.5865  -5.5835  -4.5522  -4.5498  -3.7999  -3.7954
    -3.1032  -3.1015  -2.6013  -2.5997  -1.3249  -1.3227   0.4888   0.4901
     1.0016   1.0024   2.4800   2.4820   3.0758   3.0791   5.1485

          k = 0.0625 0.5413 0.0000 ( 37791 PWs)   bands (ev):

   -61.8700 -61.8691 -48.2903 -48.2895 -48.2888 -48.2881 -48.2857 -48.2853
   -48.2841 -48.2840 -48.2468 -48.2457 -48.2454 -48.2452 -48.2448 -48.2443
   -48.2438 -48.2435 -48.2238 -48.2232 -48.2223 -48.2220 -36.1658 -36.1643
   -35.9681 -35.9667 -35.9544 -35.9534 -13.6546 -13.6509 -13.2022 -13.1997
    -6.8562  -6.8524  -5.5689  -5.5666  -4.7621  -4.7595  -3.8174  -3.8127
    -2.9901  -2.9883  -2.6736  -2.6722  -1.3260  -1.3239   0.6688   0.6709
     1.1314   1.1318   2.5772   2.5794   3.3193   3.3217   4.6475

          k = 0.1250 0.2165 0.0000 ( 37731 PWs)   bands (ev):

   -61.8853 -61.8844 -48.2902 -48.2898 -48.2886 -48.2885 -48.2884 -48.2882
   -48.2870 -48.2868 -48.2456 -48.2450 -48.2448 -48.2446 -48.2442 -48.2436
   -48.2434 -48.2433 -48.2252 -48.2247 -48.2238 -48.2234 -36.0036 -36.0022
   -35.9905 -35.9894 -35.9283 -35.9269 -14.6563 -14.6530 -14.1466 -14.1445
    -5.5820  -5.5789  -4.9148  -4.9101  -3.6931  -3.6886  -3.0084  -3.0063
    -2.8630  -2.8588  -1.9306  -1.9286  -1.3214  -1.3207   0.0542   0.0546
     0.3152   0.3159   2.1651   2.1703   2.1860   2.1875   4.1239

          k = 0.1250 0.2887 0.0000 ( 37723 PWs)   bands (ev):

   -61.8808 -61.8799 -48.2901 -48.2896 -48.2886 -48.2882 -48.2878 -48.2874
   -48.2863 -48.2860 -48.2460 -48.2452 -48.2449 -48.2447 -48.2445 -48.2437
   -48.2436 -48.2434 -48.2248 -48.2243 -48.2233 -48.2230 -36.0471 -36.0457
   -35.9801 -35.9791 -35.9443 -35.9429 -14.3339 -14.3307 -13.9794 -13.9770
    -5.2682  -5.2642  -5.0791  -5.0755  -4.4610  -4.4572  -3.4609  -3.4578
    -2.9527  -2.9490  -2.1985  -2.1971  -1.1949  -1.1938  -0.1584  -0.1581
     0.6079   0.6085   1.8747   1.8759   2.4758   2.4810   4.5939

          k = 0.1250 0.3608 0.0000 ( 37761 PWs)   bands (ev):

   -61.8763 -61.8754 -48.2900 -48.2894 -48.2885 -48.2880 -48.2871 -48.2867
   -48.2855 -48.2853 -48.2463 -48.2454 -48.2450 -48.2449 -48.2448 -48.2439
   -48.2437 -48.2435 -48.2244 -48.2238 -48.2229 -48.2226 -36.0901 -36.0886
   -35.9703 -35.9693 -35.9600 -35.9587 -13.9937 -13.9906 -13.7784 -13.7758
    -5.4711  -5.4668  -5.2608  -5.2574  -4.6649  -4.6619  -3.8489  -3.8456
    -3.0520  -3.0489  -2.6287  -2.6273  -1.0641  -1.0627  -0.1232  -0.1230
     0.8903   0.8910   1.7929   1.7939   2.7854   2.7901   5.1521

          k = 0.1250 0.4330 0.0000 ( 37768 PWs)   bands (ev):

   -61.8725 -61.8716 -48.2899 -48.2893 -48.2884 -48.2878 -48.2864 -48.2861
   -48.2849 -48.2847 -48.2465 -48.2456 -48.2451 -48.2451 -48.2449 -48.2442
   -48.2437 -48.2436 -48.2240 -48.2235 -48.2226 -48.2223 -36.1261 -36.1246
   -35.9753 -35.9740 -35.9601 -35.9590 -13.7437 -13.7405 -13.5153 -13.5126
    -6.0608  -6.0570  -5.5199  -5.5164  -4.3942  -4.3916  -4.0761  -4.0725
    -3.1635  -3.1609  -2.9773  -2.9756  -1.0321  -1.0308   0.1202   0.1207
     1.0805   1.0816   1.9026   1.9039   3.0654   3.0690   5.5750

          k = 0.1250 0.5052 0.0000 ( 37794 PWs)   bands (ev):

   -61.8700 -61.8691 -48.2899 -48.2892 -48.2884 -48.2877 -48.2860 -48.2857
   -48.2845 -48.2843 -48.2467 -48.2458 -48.2453 -48.2451 -48.2449 -48.2444
   -48.2437 -48.2436 -48.2238 -48.2233 -48.2223 -48.2220 -36.1500 -36.1485
   -35.9844 -35.9830 -35.9544 -35.9534 -13.6119 -13.6084 -13.2663 -13.2637
    -6.5640  -6.5603  -5.5531  -5.5502  -4.5669  -4.5643  -4.0278  -4.0240
    -3.2449  -3.2426  -3.0413  -3.0394  -1.0893  -1.0883   0.4579   0.4591
     1.1298   1.1309   2.0692   2.0708   3.2530   3.2556   5.2819

          k = 0.1250 0.5774 0.0000 ( 37780 PWs)   bands (ev):

   -61.8691 -61.8682 -48.2899 -48.2891 -48.2884 -48.2877 -48.2859 -48.2855
   -48.2843 -48.2842 -48.2468 -48.2459 -48.2454 -48.2451 -48.2449 -48.2445
   -48.2437 -48.2436 -48.2237 -48.2232 -48.2222 -48.2219 -36.1583 -36.1569
   -35.9877 -35.9863 -35.9523 -35.9514 -13.5682 -13.5646 -13.1670 -13.1644
    -6.7476  -6.7438  -5.5451  -5.5426  -4.6815  -4.6788  -4.0243  -4.0203
    -3.2741  -3.2719  -2.9959  -2.9940  -1.1283  -1.1274   0.6595   0.6612
     1.0814   1.0821   2.1522   2.1539   3.3179   3.3200   5.0254

          k = 0.1875 0.3248 0.0000 ( 37725 PWs)   bands (ev):

   -61.8767 -61.8758 -48.2898 -48.2893 -48.2883 -48.2879 -48.2872 -48.2869
   -48.2857 -48.2855 -48.2463 -48.2453 -48.2451 -48.2449 -48.2448 -48.2438
   -48.2437 -48.2436 -48.2244 -48.2239 -48.2229 -48.2226 -36.0805 -36.0791
   -35.9724 -35.9713 -35.9636 -35.9623 -14.0090 -14.0059 -13.8131 -13.8105
    -5.3388  -5.3343  -5.0922  -5.0884  -4.7539  -4.7510  -3.8519  -3.8493
    -3.3328  -3.3288  -2.5094  -2.5082  -0.8956  -0.8944  -0.3030  -0.3028
     0.8887   0.8893   1.6059   1.6065   2.7745   2.7797   5.1088

          k = 0.1875 0.3969 0.0000 ( 37753 PWs)   bands (ev):

   -61.8729 -61.8720 -48.2896 -48.2890 -48.2881 -48.2875 -48.2868 -48.2864
   -48.2853 -48.2850 -48.2465 -48.2455 -48.2452 -48.2451 -48.2449 -48.2441
   -48.2438 -48.2436 -48.2240 -48.2235 -48.2226 -48.2223 -36.1093 -36.1078
   -35.9876 -35.9862 -35.9609 -35.9599 -13.7061 -13.7030 -13.6157 -13.6128
    -5.6919  -5.6881  -5.4426  -5.4385  -4.3533  -4.3505  -4.2039  -4.2012
    -3.6585  -3.6550  -2.9082  -2.9069  -0.6893  -0.6884  -0.2351  -0.2349
     1.1099   1.1108   1.5253   1.5259   3.0676   3.0714   5.6723

          k = 0.1875 0.4691 0.0000 ( 37759 PWs)   bands (ev):

   -61.8700 -61.8691 -48.2894 -48.2887 -48.2879 -48.2873 -48.2865 -48.2861
   -48.2849 -48.2847 -48.2466 -48.2458 -48.2453 -48.2452 -48.2449 -48.2444
   -48.2439 -48.2436 -48.2238 -48.2233 -48.2223 -48.2220 -36.1302 -36.1287
   -36.0047 -36.0033 -35.9544 -35.9534 -13.5457 -13.5424 -13.3534 -13.3506
    -6.1762  -6.1725  -5.5098  -5.5063  -4.4259  -4.4229  -4.1172  -4.1144
    -3.8840  -3.8812  -3.1782  -3.1766  -0.7408  -0.7403   0.1066   0.1072
     1.1500   1.1511   1.6762   1.6770   3.2321   3.2349   5.7845

          k = 0.1875 0.5413 0.0000 ( 37793 PWs)   bands (ev):

   -61.8684 -61.8675 -48.2893 -48.2885 -48.2878 -48.2871 -48.2863 -48.2859
   -48.2848 -48.2846 -48.2466 -48.2460 -48.2453 -48.2452 -48.2449 -48.2446
   -48.2439 -48.2436 -48.2236 -48.2231 -48.2222 -48.2219 -36.1411 -36.1396
   -36.0143 -36.0129 -35.9508 -35.9498 -13.4681 -13.4646 -13.1839 -13.1811
    -6.4535  -6.4498  -5.5384  -5.5351  -4.5194  -4.5163  -4.1599  -4.1569
    -3.9588  -3.9565  -3.1994  -3.1975  -0.8287  -0.8284   0.4734   0.4742
     1.0025   1.0037   1.8869   1.8879   3.2282   3.2303   5.6588

          k = 0.2500 0.4330 0.0000 ( 37711 PWs)   bands (ev):

   -61.8700 -61.8691 -48.2891 -48.2884 -48.2877 -48.2870 -48.2867 -48.2863
   -48.2852 -48.2849 -48.2466 -48.2457 -48.2454 -48.2451 -48.2449 -48.2443
   -48.2441 -48.2435 -48.2237 -48.2233 -48.2223 -48.2220 -36.1197 -36.1183
   -36.0153 -36.0139 -35.9544 -35.9534 -13.4839 -13.4806 -13.4237 -13.4208
    -5.9556  -5.9519  -5.4783  -5.4743  -4.4074  -4.4049  -4.2473  -4.2441
    -4.0429  -4.0400  -3.2739  -3.2726  -0.3299  -0.3295  -0.3092  -0.3081
     1.1455   1.1463   1.5515   1.5518   3.2305   3.2333   5.9953

          k = 0.2500 0.5052 0.0000 ( 37776 PWs)   bands (ev):

   -61.8680 -61.8671 -48.2888 -48.2881 -48.2873 -48.2867 -48.2866 -48.2863
   -48.2852 -48.2849 -48.2465 -48.2459 -48.2456 -48.2451 -48.2449 -48.2445
   -48.2442 -48.2435 -48.2236 -48.2231 -48.2221 -48.2219 -36.1223 -36.1208
   -36.0384 -36.0370 -35.9500 -35.9490 -13.3742 -13.3708 -13.2367 -13.2338
    -6.1034  -6.0997  -5.5300  -5.5262  -4.6667  -4.6632  -4.3846  -4.3824
    -3.9690  -3.9668  -3.5118  -3.5102  -0.4323  -0.4322   0.0634   0.0639
     0.9656   0.9670   1.8430   1.8435   3.1582   3.1604   5.7874

          k = 0.2500 0.5774 0.0000 ( 37791 PWs)   bands (ev):

   -61.8673 -61.8664 -48.2886 -48.2879 -48.2871 -48.2867 -48.2865 -48.2864
   -48.2852 -48.2850 -48.2465 -48.2461 -48.2456 -48.2450 -48.2448 -48.2447
   -48.2442 -48.2435 -48.2235 -48.2231 -48.2221 -48.2218 -36.1217 -36.1203
   -36.0479 -36.0465 -35.9484 -35.9474 -13.3355 -13.3321 -13.1668 -13.1639
    -6.1463  -6.1427  -5.5602  -5.5565  -4.8197  -4.8161  -4.2049  -4.2027
    -4.1853  -4.1834  -3.5126  -3.5107  -0.4831  -0.4831   0.3221   0.3221
     0.7584   0.7603   2.0618   2.0626   3.0212   3.0230   5.6865

          k = 0.3125 0.5413 0.0000 ( 37789 PWs)   bands (ev):

   -61.8670 -61.8661 -48.2882 -48.2875 -48.2871 -48.2867 -48.2867 -48.2860
   -48.2856 -48.2853 -48.2463 -48.2461 -48.2458 -48.2449 -48.2448 -48.2446
   -48.2445 -48.2434 -48.2235 -48.2230 -48.2220 -48.2218 -36.1042 -36.1028
   -36.0704 -36.0690 -35.9476 -35.9466 -13.2561 -13.2528 -13.1943 -13.1912
    -5.8421  -5.8385  -5.5699  -5.5660  -5.2593  -5.2559  -4.2179  -4.2160
    -3.8798  -3.8779  -3.8774  -3.8764  -0.1458  -0.1452   0.0316   0.0318
     0.6587   0.6609   2.2697   2.2706   2.8340   2.8356   5.6186

     the Fermi energy is    -0.2948 ev

!    total energy              =   -2326.92171656 Ry
     total all-electron energy =    -35628.669545 Ry
     estimated scf accuracy    <          1.4E-09 Ry
     smearing contrib. (-TS)   =       0.00090286 Ry
     internal energy E=F+TS    =   -2326.92261942 Ry

     The total energy is F=E-TS. E is the sum of the following terms:
     one-electron contribution =  -17064.61483256 Ry
     hartree contribution      =    8520.53876124 Ry
     xc contribution           =    -152.42425921 Ry
     ewald contribution        =    7380.09219868 Ry
     one-center paw contrib.   =   -1010.51448758 Ry

     convergence has been achieved in  24 iterations

     Writing all to output data dir ./tmp/cleave_034/mose2_cleave_034.save/ :
     XML data file, charge density, pseudopotentials, collected wavefunctions

     init_run     :     11.62s CPU     11.84s WALL (       1 calls)
     electrons    :    470.66s CPU    479.52s WALL (       1 calls)

     Called by init_run:
     wfcinit      :      5.28s CPU      5.32s WALL (       1 calls)
     potinit      :      5.70s CPU      5.76s WALL (       1 calls)
     hinit0       :      0.05s CPU      0.06s WALL (       1 calls)

     Called by electrons:
     c_bands      :    392.10s CPU    394.71s WALL (      25 calls)
     sum_band     :     51.51s CPU     54.32s WALL (      25 calls)
     v_of_rho     :     15.26s CPU     16.21s WALL (      25 calls)
     newd         :      9.20s CPU     11.63s WALL (      25 calls)
     PAW_pot      :      1.58s CPU      1.62s WALL (      25 calls)
     mix_rho      :      6.83s CPU      6.94s WALL (      25 calls)
     vdW_kernel   :      5.26s CPU      5.27s WALL (       1 calls)

     Called by c_bands:
     init_us_2    :      3.52s CPU      3.53s WALL (    1530 calls)
     cegterg      :    384.40s CPU    386.89s WALL (     750 calls)

     Called by *egterg:
     cdiaghg      :     13.20s CPU     13.22s WALL (    3839 calls)
     h_psi        :    171.49s CPU    172.44s WALL (    3899 calls)
     s_psi        :     37.75s CPU     37.79s WALL (    3899 calls)
     g_psi        :      0.69s CPU      0.69s WALL (    3119 calls)

     Called by h_psi:
     h_psi:calbec :     49.29s CPU     49.64s WALL (    3899 calls)
     vloc_psi     :     73.70s CPU     74.23s WALL (    3899 calls)
                                        0.00s GPU  (    3899 calls)
     add_vuspsi   :     47.83s CPU     47.89s WALL (    3899 calls)

     General routines
     calbec       :     70.68s CPU     71.18s WALL (    4649 calls)
     fft          :      5.55s CPU      5.65s WALL (    1574 calls)
     ffts         :      2.22s CPU      2.24s WALL (    2879 calls)
     fftw         :     79.95s CPU     80.53s WALL (  226766 calls)
     interpolate  :      0.11s CPU      0.11s WALL (      25 calls)

     Parallel routines

     PWSCF        :   8m 3.04s CPU   8m12.38s WALL


   This run was terminated on:  13:20:37  20Jun2026            

=------------------------------------------------------------------------------=
   JOB DONE.
=------------------------------------------------------------------------------=
Note: The following floating-point exceptions are signalling: IEEE_UNDERFLOW_FLAG IEEE_DENORMAL
Note: The following floating-point exceptions are signalling: IEEE_UNDERFLOW_FLAG IEEE_DENORMAL
Note: The following floating-point exceptions are signalling: IEEE_UNDERFLOW_FLAG IEEE_DENORMAL
Note: The following floating-point exceptions are signalling: IEEE_UNDERFLOW_FLAG IEEE_DENORMAL
Note: The following floating-point exceptions are signalling: IEEE_UNDERFLOW_FLAG IEEE_DENORMAL
Note: The following floating-point exceptions are signalling: IEEE_UNDERFLOW_FLAG IEEE_DENORMAL
Note: The following floating-point exceptions are signalling: IEEE_UNDERFLOW_FLAG IEEE_DENORMAL
Note: The following floating-point exceptions are signalling: IEEE_UNDERFLOW_FLAG IEEE_DENORMAL
Note: The following floating-point exceptions are signalling: IEEE_UNDERFLOW_FLAG IEEE_DENORMAL
Note: The following floating-point exceptions are signalling: IEEE_UNDERFLOW_FLAG IEEE_DENORMAL
Note: The following floating-point exceptions are signalling: IEEE_UNDERFLOW_FLAG IEEE_DENORMAL
Note: The following floating-point exceptions are signalling: IEEE_UNDERFLOW_FLAG IEEE_DENORMAL
Note: The following floating-point exceptions are signalling: IEEE_UNDERFLOW_FLAG IEEE_DENORMAL
Note: The following floating-point exceptions are signalling: IEEE_UNDERFLOW_FLAG IEEE_DENORMAL
Note: The following floating-point exceptions are signalling: IEEE_UNDERFLOW_FLAG IEEE_DENORMAL
Note: The following floating-point exceptions are signalling: IEEE_UNDERFLOW_FLAG IEEE_DENORMAL
Note: The following floating-point exceptions are signalling: IEEE_UNDERFLOW_FLAG IEEE_DENORMAL
Note: The following floating-point exceptions are signalling: IEEE_UNDERFLOW_FLAG IEEE_DENORMAL
Note: The following floating-point exceptions are signalling: IEEE_UNDERFLOW_FLAG IEEE_DENORMAL
Note: The following floating-point exceptions are signalling: IEEE_UNDERFLOW_FLAG IEEE_DENORMAL
Note: The following floating-point exceptions are signalling: IEEE_UNDERFLOW_FLAG IEEE_DENORMAL
Note: The following floating-point exceptions are signalling: IEEE_UNDERFLOW_FLAG IEEE_DENORMAL
Note: The following floating-point exceptions are signalling: IEEE_UNDERFLOW_FLAG IEEE_DENORMAL
Note: The following floating-point exceptions are signalling: IEEE_UNDERFLOW_FLAG IEEE_DENORMAL
