
     Program PWSCF v.7.5 starts on 20Jun2026 at 11:44:17 

     This program is part of the open-source Quantum ESPRESSO suite
     for quantum simulation of materials; please cite
         "P. Giannozzi et al., J. Phys.:Condens. Matter 21 395502 (2009);
         "P. Giannozzi et al., J. Phys.:Condens. Matter 29 465901 (2017);
         "P. Giannozzi et al., J. Chem. Phys. 152 154105 (2020);
          URL http://www.quantum-espresso.org", 
     in publications or presentations arising from this work. More details at
     http://www.quantum-espresso.org/quote

     Parallel version (MPI), running on    24 processors

     MPI processes distributed on     1 nodes
     6002 MiB available memory on the printing compute node when the environment starts

     Waiting for input...
     Reading input from standard input

     Current dimensions of program PWSCF are:
     Max number of different atomic species (ntypx) = 10
     Max number of k-points (npk) =  40000
     Max angular momentum in pseudopotentials (lmaxx) =  4
     file Mo.pbe-spn-kjpaw_psl.1.0.0.UPF: wavefunction(s)  4S 4D renormalized
     file Se.pbe-dn-kjpaw_psl.1.0.0.UPF: wavefunction(s)  4S 4P 3D renormalized

     IMPORTANT: XC functional enforced from input :
     Exchange-correlation= VDW-DF2-B86R
                           (   1   4  26   0   2   0   0)
     Any further DFT definition will be discarded
     Please, verify this is what you really want


     R & G space division:  proc/nbgrp/npool/nimage =      24
     Subspace diagonalization in iterative solution of the eigenvalue problem:
     a serial algorithm will be used


     Parallelization info
     --------------------
     sticks:   dense  smooth     PW     G-vecs:    dense   smooth      PW
     Min          69      35     10                35537    12585    1924
     Max          70      36     11                35620    12648    1981
     Sum        1675     847    241               853823   302525   46513

     Using Slab Decomposition



     bravais-lattice index     =            4
     lattice parameter (alat)  =       6.1794  a.u.
     unit-cell volume          =    3124.5879 (a.u.)^3
     number of atoms/cell      =            6
     number of atomic types    =            2
     number of electrons       =        92.00
     number of Kohn-Sham states=           55
     kinetic-energy cutoff     =      80.0000  Ry
     charge density cutoff     =     640.0000  Ry
     scf convergence threshold =      1.0E-08
     mixing beta               =       0.3000
     number of iterations used =            8  local-TF  mixing
     Exchange-correlation= VDW-DF2-B86R
                           (   1   4  26   0   2   0   0)

     celldm(1)=   6.179404  celldm(2)=   0.000000  celldm(3)=  15.290520
     celldm(4)=   0.000000  celldm(5)=   0.000000  celldm(6)=   0.000000

     crystal axes: (cart. coord. in units of alat)
               a(1) = (   1.000000   0.000000   0.000000 )  
               a(2) = (  -0.500000   0.866025   0.000000 )  
               a(3) = (   0.000000   0.000000  15.290520 )  

     reciprocal axes: (cart. coord. in units 2 pi/alat)
               b(1) = (  1.000000  0.577350 -0.000000 )  
               b(2) = (  0.000000  1.154701  0.000000 )  
               b(3) = (  0.000000 -0.000000  0.065400 )  


     PseudoPot. # 1 for Mo read from file:
     ./pseudo/Mo.pbe-spn-kjpaw_psl.1.0.0.UPF
     MD5 check sum: 4396e0c640fcce5c25f020efccf1ab12
     Pseudo is Projector augmented-wave + core cor, Zval = 14.0
     Generated using &quot;atomic&quot; code by A. Dal Corso  v.6.3
     Shape of augmentation charge: PSQ
     Using radial grid of 1229 points,  6 beta functions with: 
                l(1) =   0
                l(2) =   0
                l(3) =   1
                l(4) =   1
                l(5) =   2
                l(6) =   2
     Q(r) pseudized with 0 coefficients 


     PseudoPot. # 2 for Se read from file:
     ./pseudo/Se.pbe-dn-kjpaw_psl.1.0.0.UPF
     MD5 check sum: ac240dd2bae32a30e0bf3a38df9c8785
     Pseudo is Projector augmented-wave + core cor, Zval = 16.0
     Generated using &quot;atomic&quot; code by A. Dal Corso  v.6.3
     Shape of augmentation charge: PSQ
     Using radial grid of 1211 points,  6 beta functions with: 
                l(1) =   0
                l(2) =   0
                l(3) =   1
                l(4) =   1
                l(5) =   2
                l(6) =   2
     Q(r) pseudized with 0 coefficients 


     atomic species   valence    mass     pseudopotential
     Mo               14.00    95.96000     Mo( 1.00)
     Se               16.00    78.96000     Se( 1.00)

      6 Sym. Ops. (no inversion) found



   Cartesian axes

     site n.     atom                  positions (alat units)
         1        Se     tau(   1) = (  -0.0000005   0.5773506   6.1238532  )
         2        Mo     tau(   2) = (   0.0000000   0.0000000   6.6502752  )
         3        Se     tau(   3) = (   0.5000005   0.2886748   7.1775994  )
         4        Se     tau(   4) = (  -0.0000005   0.5773506   9.5190673  )
         5        Mo     tau(   5) = (   0.5000005   0.2886748  10.0462538  )
         6        Se     tau(   6) = (   0.0000000   0.0000000  10.5733945  )

     number of k points=    30  Methfessel-Paxton smearing, width (Ry)=  0.0200
                       cart. coord. in units 2pi/alat
        k(    1) = (   0.0000000   0.0000000   0.0000000), wk =   0.0078125
        k(    2) = (   0.0000000   0.0721688   0.0000000), wk =   0.0468750
        k(    3) = (   0.0000000   0.1443376   0.0000000), wk =   0.0468750
        k(    4) = (   0.0000000   0.2165064   0.0000000), wk =   0.0468750
        k(    5) = (   0.0000000   0.2886751   0.0000000), wk =   0.0468750
        k(    6) = (   0.0000000   0.3608439   0.0000000), wk =   0.0468750
        k(    7) = (   0.0000000   0.4330127   0.0000000), wk =   0.0468750
        k(    8) = (   0.0000000   0.5051815   0.0000000), wk =   0.0468750
        k(    9) = (   0.0000000  -0.5773503   0.0000000), wk =   0.0234375
        k(   10) = (   0.0625000   0.1082532   0.0000000), wk =   0.0468750
        k(   11) = (   0.0625000   0.1804220   0.0000000), wk =   0.0937500
        k(   12) = (   0.0625000   0.2525907   0.0000000), wk =   0.0937500
        k(   13) = (   0.0625000   0.3247595   0.0000000), wk =   0.0937500
        k(   14) = (   0.0625000   0.3969283   0.0000000), wk =   0.0937500
        k(   15) = (   0.0625000   0.4690971   0.0000000), wk =   0.0937500
        k(   16) = (   0.0625000   0.5412659   0.0000000), wk =   0.0937500
        k(   17) = (   0.1250000   0.2165064   0.0000000), wk =   0.0468750
        k(   18) = (   0.1250000   0.2886751   0.0000000), wk =   0.0937500
        k(   19) = (   0.1250000   0.3608439   0.0000000), wk =   0.0937500
        k(   20) = (   0.1250000   0.4330127   0.0000000), wk =   0.0937500
        k(   21) = (   0.1250000   0.5051815   0.0000000), wk =   0.0937500
        k(   22) = (   0.1250000   0.5773503   0.0000000), wk =   0.0468750
        k(   23) = (   0.1875000   0.3247595   0.0000000), wk =   0.0468750
        k(   24) = (   0.1875000   0.3969283   0.0000000), wk =   0.0937500
        k(   25) = (   0.1875000   0.4690971   0.0000000), wk =   0.0937500
        k(   26) = (   0.1875000   0.5412659   0.0000000), wk =   0.0937500
        k(   27) = (   0.2500000   0.4330127   0.0000000), wk =   0.0468750
        k(   28) = (   0.2500000   0.5051815   0.0000000), wk =   0.0937500
        k(   29) = (   0.2500000   0.5773503   0.0000000), wk =   0.0468750
        k(   30) = (   0.3125000   0.5412659   0.0000000), wk =   0.0468750

     Dense  grid:   853823 G-vectors     FFT dimensions: (  50,  50, 768)

     Smooth grid:   302525 G-vectors     FFT dimensions: (  36,  36, 540)

     Estimated max dynamical RAM per process >     171.88 MB

     Estimated total dynamical RAM >       4.03 GB

     Initial potential from superposition of free atoms

     starting charge      91.9979, renormalised to      92.0000

     negative rho (up, down):  1.708E-04 0.000E+00


     %%%%%%%%%%%%%%%%%%%%%%%%%%%%%%%%%%%%%%%%%%%%%%%%%%%%%%%%%%%%%%%%%%%%%%%%
     %                                                                      %
     % You are using vdW-DF, which was implemented by the Thonhauser group. %
     % Please cite the following two papers that made this development      %
     % possible and the two reviews that describe the various versions:     %
     %                                                                      %
     %   T. Thonhauser et al., PRL 115, 136402 (2015).                      %
     %   T. Thonhauser et al., PRB 76, 125112 (2007).                       %
     %   K. Berland et al., Rep. Prog. Phys. 78, 066501 (2015).             %
     %   D.C. Langreth et al., J. Phys.: Condens. Matter 21, 084203 (2009). %
     %                                                                      %
     % If you are calculating stress with vdW-DF, please also cite:         %
     %                                                                      %
     %   R. Sabatini et al., J. Phys.: Condens. Matter 24, 424209 (2012).   %
     %                                                                      %
     %%%%%%%%%%%%%%%%%%%%%%%%%%%%%%%%%%%%%%%%%%%%%%%%%%%%%%%%%%%%%%%%%%%%%%%%

     %%%%%%%%%%%%%%%%%%%%%%%%%%%%%%%%%%%%%%%%%%%%%%%%%%%%%%%%%%%%%%%%%%%%%%%%
     %                                                                      %
     %  vdW-DF NEWS:                                                        %
     %                                                                      %
     %  * vdW-DF3 is now available. DOI: 10.1021/acs.jctc.0c00471           %
     %    use with input_dft = 'vdW-DF3-opt1' or 'vdW-DF3-opt2'             %
     %                                                                      %
     %  * Unscreened and range-separated hybrid vdW-DF-cx functionals       %
     %    DOI: 10.1063/1.4986522 and 10.1088/1361-648X/ac2ad2               %
     %    use with input_dft = 'vdW-DF-cx0'    and 'vdW-DF-ahcx'            %
     %  * Unscreened and range-separated hybrid vdW-DF2-b86r functionals    %
     %    DOI: 10.1063/1.4986522 and DOI: 10.1103/PhysRevX.12.041003        %
     %    use with input_dft = 'vdW-DF2-br0' and 'vdW-DF2-ahbr'             %
     %                                                                      %
     %%%%%%%%%%%%%%%%%%%%%%%%%%%%%%%%%%%%%%%%%%%%%%%%%%%%%%%%%%%%%%%%%%%%%%%%


     Starting wfcs are   56 randomized atomic wfcs
     Checking if some PAW data can be deallocated... 

     total cpu time spent up to now is       12.3 secs

     per-process dynamical memory:    79.7 Mb

     Self-consistent Calculation

     iteration #  1     ecut=    80.00 Ry     beta= 0.30
     Davidson diagonalization with overlap
     ethr =  1.00E-02,  avg # of iterations =  4.5

     Threshold (ethr) on eigenvalues was too large:
     Diagonalizing with lowered threshold

     Davidson diagonalization with overlap
     ethr =  4.49E-04,  avg # of iterations =  2.2

     negative rho (up, down):  6.368E-05 0.000E+00

     total cpu time spent up to now is       50.5 secs

     total energy              =   -2326.96330827 Ry
     estimated scf accuracy    <       0.46044264 Ry

     iteration #  2     ecut=    80.00 Ry     beta= 0.30
     Davidson diagonalization with overlap
     ethr =  5.00E-04,  avg # of iterations =  1.5

     negative rho (up, down):  3.745E-05 0.000E+00

     total cpu time spent up to now is       66.6 secs

     total energy              =   -2326.91622160 Ry
     estimated scf accuracy    <       0.24507629 Ry

     iteration #  3     ecut=    80.00 Ry     beta= 0.30
     Davidson diagonalization with overlap
     ethr =  2.66E-04,  avg # of iterations =  4.4

     negative rho (up, down):  1.258E-05 0.000E+00

     total cpu time spent up to now is       85.4 secs

     total energy              =   -2326.92336577 Ry
     estimated scf accuracy    <       0.03194836 Ry

     iteration #  4     ecut=    80.00 Ry     beta= 0.30
     Davidson diagonalization with overlap
     ethr =  3.47E-05,  avg # of iterations =  6.8

     negative rho (up, down):  5.403E-06 0.000E+00

     total cpu time spent up to now is      106.6 secs

     total energy              =   -2326.92341209 Ry
     estimated scf accuracy    <       0.01033636 Ry

     iteration #  5     ecut=    80.00 Ry     beta= 0.30
     Davidson diagonalization with overlap
     ethr =  1.12E-05,  avg # of iterations =  4.4

     negative rho (up, down):  6.552E-07 0.000E+00

     total cpu time spent up to now is      127.1 secs

     total energy              =   -2326.92248126 Ry
     estimated scf accuracy    <       0.00419593 Ry

     iteration #  6     ecut=    80.00 Ry     beta= 0.30
     Davidson diagonalization with overlap
     c_bands:  1 eigenvalues not converged
     c_bands:  1 eigenvalues not converged
     c_bands:  1 eigenvalues not converged
     ethr =  4.56E-06,  avg # of iterations =  7.1

     negative rho (up, down):  3.262E-07 0.000E+00

     total cpu time spent up to now is      149.7 secs

     total energy              =   -2326.92254003 Ry
     estimated scf accuracy    <       0.00142942 Ry

     iteration #  7     ecut=    80.00 Ry     beta= 0.30
     Davidson diagonalization with overlap
     ethr =  1.55E-06,  avg # of iterations =  3.0

     negative rho (up, down):  2.866E-07 0.000E+00

     total cpu time spent up to now is      168.4 secs

     total energy              =   -2326.92235986 Ry
     estimated scf accuracy    <       0.00123422 Ry

     iteration #  8     ecut=    80.00 Ry     beta= 0.30
     Davidson diagonalization with overlap
     ethr =  1.34E-06,  avg # of iterations =  2.7

     negative rho (up, down):  1.401E-07 0.000E+00

     total cpu time spent up to now is      186.6 secs

     total energy              =   -2326.92231817 Ry
     estimated scf accuracy    <       0.00087232 Ry

     iteration #  9     ecut=    80.00 Ry     beta= 0.30
     Davidson diagonalization with overlap
     ethr =  9.48E-07,  avg # of iterations =  3.2

     negative rho (up, down):  1.552E-03 0.000E+00

     total cpu time spent up to now is      204.3 secs

     total energy              =   -2326.92233330 Ry
     estimated scf accuracy    <       0.00067432 Ry

     iteration # 10     ecut=    80.00 Ry     beta= 0.30
     Davidson diagonalization with overlap
     ethr =  7.33E-07,  avg # of iterations =  5.7

     negative rho (up, down):  3.617E-03 0.000E+00

     total cpu time spent up to now is      222.3 secs

     total energy              =   -2326.92225411 Ry
     estimated scf accuracy    <       0.00054630 Ry

     iteration # 11     ecut=    80.00 Ry     beta= 0.30
     Davidson diagonalization with overlap
     ethr =  5.94E-07,  avg # of iterations =  5.1

     negative rho (up, down):  7.250E-03 0.000E+00

     total cpu time spent up to now is      240.8 secs

     total energy              =   -2326.92214758 Ry
     estimated scf accuracy    <       0.00036750 Ry

     iteration # 12     ecut=    80.00 Ry     beta= 0.30
     Davidson diagonalization with overlap
     c_bands:  1 eigenvalues not converged
     ethr =  3.99E-07,  avg # of iterations =  7.2

     negative rho (up, down):  5.777E-03 0.000E+00

     total cpu time spent up to now is      261.8 secs

     total energy              =   -2326.92217308 Ry
     estimated scf accuracy    <       0.00022517 Ry

     iteration # 13     ecut=    80.00 Ry     beta= 0.30
     Davidson diagonalization with overlap
     ethr =  2.45E-07,  avg # of iterations =  1.8

     negative rho (up, down):  3.779E-03 0.000E+00

     total cpu time spent up to now is      279.2 secs

     total energy              =   -2326.92213175 Ry
     estimated scf accuracy    <       0.00013639 Ry

     iteration # 14     ecut=    80.00 Ry     beta= 0.30
     Davidson diagonalization with overlap
     ethr =  1.48E-07,  avg # of iterations =  1.8

     negative rho (up, down):  2.914E-03 0.000E+00

     total cpu time spent up to now is      296.6 secs

     total energy              =   -2326.92215825 Ry
     estimated scf accuracy    <       0.00007043 Ry

     iteration # 15     ecut=    80.00 Ry     beta= 0.30
     Davidson diagonalization with overlap
     ethr =  7.66E-08,  avg # of iterations =  2.4

     negative rho (up, down):  1.082E-03 0.000E+00

     total cpu time spent up to now is      314.3 secs

     total energy              =   -2326.92219586 Ry
     estimated scf accuracy    <       0.00005719 Ry

     iteration # 16     ecut=    80.00 Ry     beta= 0.30
     Davidson diagonalization with overlap
     ethr =  6.22E-08,  avg # of iterations =  4.2

     negative rho (up, down):  5.929E-04 0.000E+00

     total cpu time spent up to now is      333.4 secs

     total energy              =   -2326.92220402 Ry
     estimated scf accuracy    <       0.00003320 Ry

     iteration # 17     ecut=    80.00 Ry     beta= 0.30
     Davidson diagonalization with overlap
     ethr =  3.61E-08,  avg # of iterations =  2.9

     negative rho (up, down):  4.468E-04 0.000E+00

     total cpu time spent up to now is      351.9 secs

     total energy              =   -2326.92220783 Ry
     estimated scf accuracy    <       0.00001755 Ry

     iteration # 18     ecut=    80.00 Ry     beta= 0.30
     Davidson diagonalization with overlap
     ethr =  1.91E-08,  avg # of iterations =  1.5

     negative rho (up, down):  2.451E-04 0.000E+00

     total cpu time spent up to now is      368.6 secs

     total energy              =   -2326.92220882 Ry
     estimated scf accuracy    <       0.00000789 Ry

     iteration # 19     ecut=    80.00 Ry     beta= 0.30
     Davidson diagonalization with overlap
     ethr =  8.58E-09,  avg # of iterations =  2.1

     negative rho (up, down):  2.648E-04 0.000E+00

     total cpu time spent up to now is      387.2 secs

     total energy              =   -2326.92221224 Ry
     estimated scf accuracy    <       0.00000290 Ry

     iteration # 20     ecut=    80.00 Ry     beta= 0.30
     Davidson diagonalization with overlap
     ethr =  3.15E-09,  avg # of iterations =  2.1

     negative rho (up, down):  2.945E-04 0.000E+00

     total cpu time spent up to now is      406.2 secs

     total energy              =   -2326.92221309 Ry
     estimated scf accuracy    <       0.00000040 Ry

     iteration # 21     ecut=    80.00 Ry     beta= 0.30
     Davidson diagonalization with overlap
     ethr =  4.30E-10,  avg # of iterations =  2.6

     negative rho (up, down):  2.098E-04 0.000E+00

     total cpu time spent up to now is      425.0 secs

     total energy              =   -2326.92221292 Ry
     estimated scf accuracy    <       0.00000016 Ry

     iteration # 22     ecut=    80.00 Ry     beta= 0.30
     Davidson diagonalization with overlap
     ethr =  1.72E-10,  avg # of iterations =  3.0

     negative rho (up, down):  2.092E-04 0.000E+00

     total cpu time spent up to now is      445.4 secs

     total energy              =   -2326.92221286 Ry
     estimated scf accuracy    <       0.00000002 Ry

     iteration # 23     ecut=    80.00 Ry     beta= 0.30
     Davidson diagonalization with overlap
     ethr =  2.39E-11,  avg # of iterations =  2.9

     negative rho (up, down):  2.014E-04 0.000E+00

     total cpu time spent up to now is      465.0 secs

     End of self-consistent calculation

          k = 0.0000 0.0000 0.0000 ( 37787 PWs)   bands (ev):

   -61.8968 -61.8959 -48.2922 -48.2922 -48.2916 -48.2916 -48.2908 -48.2908
   -48.2902 -48.2902 -48.2467 -48.2467 -48.2460 -48.2460 -48.2453 -48.2453
   -48.2447 -48.2447 -48.2281 -48.2272 -48.2267 -48.2260 -36.0153 -36.0142
   -35.9000 -35.9000 -35.8986 -35.8986 -15.2948 -15.2913 -14.4766 -14.4751
    -6.4380  -6.4348  -3.3614  -3.3614  -3.3553  -3.3553  -3.3406  -3.3336
    -1.5950  -1.5864  -1.0651  -1.0650  -1.0622  -1.0622   0.2284   0.2284
     0.2312   0.2312   2.8556   2.9469   2.9469   2.9490   2.9490

          k = 0.0000 0.0722 0.0000 ( 37755 PWs)   bands (ev):

   -61.8959 -61.8950 -48.2922 -48.2921 -48.2916 -48.2914 -48.2908 -48.2906
   -48.2902 -48.2900 -48.2468 -48.2468 -48.2461 -48.2460 -48.2454 -48.2454
   -48.2448 -48.2447 -48.2280 -48.2271 -48.2266 -48.2259 -36.0131 -36.0120
   -35.9106 -35.9093 -35.9024 -35.9011 -15.2380 -15.2346 -14.4471 -14.4455
    -6.3602  -6.3571  -3.8343  -3.8298  -3.3294  -3.3233  -2.9355  -2.9305
    -1.6322  -1.6255  -1.2549  -1.2519  -1.2120  -1.2089   0.1197   0.1234
     0.3414   0.3439   2.6049   2.6330   2.8983   2.9003   2.9822

          k = 0.0000 0.1443 0.0000 ( 37697 PWs)   bands (ev):

   -61.8931 -61.8922 -48.2922 -48.2916 -48.2915 -48.2908 -48.2907 -48.2902
   -48.2900 -48.2895 -48.2470 -48.2468 -48.2462 -48.2461 -48.2456 -48.2454
   -48.2449 -48.2448 -48.2277 -48.2269 -48.2263 -48.2257 -36.0067 -36.0056
   -35.9407 -35.9394 -35.9093 -35.9080 -15.0717 -15.0683 -14.3609 -14.3592
    -6.1350  -6.1318  -4.3198  -4.3152  -3.2541  -3.2480  -2.7160  -2.7117
    -2.0783  -2.0756  -1.4996  -1.4961  -1.4590  -1.4538  -0.0009   0.0056
     0.5320   0.5338   2.0155   2.0422   2.7985   2.8004   3.2372

          k = 0.0000 0.2165 0.0000 ( 37653 PWs)   bands (ev):

   -61.8890 -61.8881 -48.2922 -48.2915 -48.2907 -48.2907 -48.2902 -48.2900
   -48.2892 -48.2887 -48.2473 -48.2470 -48.2464 -48.2461 -48.2459 -48.2456
   -48.2451 -48.2448 -48.2273 -48.2265 -48.2259 -48.2253 -35.9975 -35.9964
   -35.9852 -35.9838 -35.9197 -35.9184 -14.8087 -14.8054 -14.2246 -14.2226
    -5.7943  -5.7912  -4.7492  -4.7445  -3.2584  -3.2553  -3.2025  -3.1965
    -2.4370  -2.4333  -1.7232  -1.7195  -1.5589  -1.5556  -0.0326  -0.0254
     0.6384   0.6397   1.6526   1.6828   2.7331   2.7348   3.6107

          k = 0.0000 0.2887 0.0000 ( 37721 PWs)   bands (ev):

   -61.8842 -61.8833 -48.2922 -48.2915 -48.2907 -48.2901 -48.2898 -48.2892
   -48.2884 -48.2878 -48.2477 -48.2471 -48.2466 -48.2463 -48.2462 -48.2457
   -48.2453 -48.2449 -48.2269 -48.2260 -48.2255 -48.2248 -36.0382 -36.0368
   -35.9855 -35.9845 -35.9319 -35.9306 -14.4755 -14.4723 -14.0467 -14.0445
    -5.4828  -5.4792  -4.9890  -4.9850  -4.2804  -4.2770  -3.2568  -3.2512
    -2.6218  -2.6196  -1.8109  -1.8093  -1.7668  -1.7628   0.0489   0.0558
     0.6434   0.6445   1.7570   1.7916   2.7343   2.7361   4.0894

          k = 0.0000 0.3608 0.0000 ( 37749 PWs)   bands (ev):

   -61.8793 -61.8784 -48.2922 -48.2914 -48.2907 -48.2901 -48.2889 -48.2883
   -48.2875 -48.2869 -48.2481 -48.2472 -48.2468 -48.2467 -48.2463 -48.2458
   -48.2455 -48.2450 -48.2264 -48.2256 -48.2251 -48.2244 -36.0902 -36.0888
   -35.9742 -35.9732 -35.9441 -35.9427 -14.1272 -14.1240 -13.8273 -13.8248
    -5.5996  -5.5954  -5.2378  -5.2346  -4.7248  -4.7216  -3.4054  -3.4000
    -2.9813  -2.9802  -2.0759  -2.0748  -1.6615  -1.6576   0.3092   0.3146
     0.6203   0.6215   2.1755   2.2109   2.7708   2.7729   4.6458

          k = 0.0000 0.4330 0.0000 ( 37785 PWs)   bands (ev):

   -61.8752 -61.8743 -48.2922 -48.2914 -48.2908 -48.2900 -48.2881 -48.2875
   -48.2867 -48.2861 -48.2484 -48.2473 -48.2470 -48.2469 -48.2464 -48.2460
   -48.2456 -48.2451 -48.2261 -48.2252 -48.2247 -48.2240 -36.1339 -36.1325
   -35.9646 -35.9636 -35.9543 -35.9530 -13.8633 -13.8600 -13.5484 -13.5458
    -6.2001  -6.1962  -5.5776  -5.5744  -4.5350  -4.5324  -3.5646  -3.5593
    -3.2354  -3.2343  -2.2492  -2.2483  -1.5278  -1.5242   0.6348   0.6365
     0.6752   0.6786   2.6946   2.7243   2.8073   2.8096   5.0561

          k = 0.0000 0.5052 0.0000 ( 37822 PWs)   bands (ev):

   -61.8724 -61.8715 -48.2923 -48.2913 -48.2908 -48.2900 -48.2876 -48.2870
   -48.2862 -48.2856 -48.2486 -48.2474 -48.2473 -48.2470 -48.2464 -48.2460
   -48.2457 -48.2451 -48.2258 -48.2249 -48.2244 -48.2238 -36.1630 -36.1615
   -35.9612 -35.9599 -35.9581 -35.9571 -13.7181 -13.7146 -13.2865 -13.2840
    -6.7576  -6.7538  -5.5989  -5.5964  -4.7021  -4.6997  -3.6766  -3.6714
    -3.1153  -3.1137  -2.3772  -2.3766  -1.4406  -1.4373   0.6839   0.6861
     1.0175   1.0191   2.8299   2.8324   3.1492   3.1661   4.6693

          k = 0.0000-0.5774 0.0000 ( 37832 PWs)   bands (ev):

   -61.8715 -61.8706 -48.2923 -48.2913 -48.2908 -48.2899 -48.2875 -48.2868
   -48.2860 -48.2855 -48.2487 -48.2474 -48.2474 -48.2471 -48.2464 -48.2460
   -48.2458 -48.2451 -48.2257 -48.2249 -48.2243 -48.2237 -36.1732 -36.1717
   -35.9636 -35.9623 -35.9559 -35.9549 -13.6706 -13.6670 -13.1799 -13.1774
    -6.9628  -6.9590  -5.5693  -5.5673  -4.8449  -4.8423  -3.7163  -3.7111
    -2.9866  -2.9849  -2.4457  -2.4451  -1.4129  -1.4098   0.7115   0.7139
     1.1649   1.1654   2.8371   2.8397   3.3751   3.3815   4.3426

          k = 0.0625 0.1083 0.0000 ( 37709 PWs)   bands (ev):

   -61.8940 -61.8931 -48.2922 -48.2917 -48.2915 -48.2910 -48.2907 -48.2902
   -48.2902 -48.2897 -48.2469 -48.2468 -48.2461 -48.2461 -48.2455 -48.2454
   -48.2449 -48.2448 -48.2278 -48.2270 -48.2264 -48.2258 -36.0088 -36.0077
   -35.9306 -35.9293 -35.9074 -35.9061 -15.1264 -15.1230 -14.3893 -14.3876
    -6.2083  -6.2051  -4.1909  -4.1864  -3.2829  -3.2768  -2.7367  -2.7318
    -1.8776  -1.8752  -1.4998  -1.4964  -1.3832  -1.3786   0.0600   0.0659
     0.4317   0.4336   2.2420   2.2696   2.7527   2.7565   3.1616

          k = 0.0625 0.1804 0.0000 ( 37703 PWs)   bands (ev):

   -61.8906 -61.8897 -48.2921 -48.2915 -48.2911 -48.2907 -48.2904 -48.2902
   -48.2896 -48.2890 -48.2472 -48.2469 -48.2463 -48.2461 -48.2458 -48.2455
   -48.2450 -48.2449 -48.2275 -48.2266 -48.2261 -48.2254 -36.0008 -35.9998
   -35.9673 -35.9659 -35.9169 -35.9155 -14.9113 -14.9080 -14.2782 -14.2763
    -5.9203  -5.9172  -4.6045  -4.5999  -3.2773  -3.2714  -2.8119  -2.8091
    -2.4545  -2.4518  -1.7546  -1.7512  -1.4152  -1.4108   0.0587   0.0654
     0.4319   0.4336   1.9225   1.9512   2.5792   2.5827   3.4726

          k = 0.0625 0.2526 0.0000 ( 37702 PWs)   bands (ev):

   -61.8861 -61.8852 -48.2921 -48.2915 -48.2906 -48.2902 -48.2901 -48.2896
   -48.2888 -48.2882 -48.2475 -48.2470 -48.2465 -48.2462 -48.2461 -48.2456
   -48.2452 -48.2449 -48.2271 -48.2262 -48.2257 -48.2250 -36.0150 -36.0136
   -35.9902 -35.9891 -35.9293 -35.9279 -14.6112 -14.6079 -14.1221 -14.1200
    -5.5528  -5.5495  -4.9487  -4.9441  -3.8362  -3.8325  -3.2230  -3.2183
    -2.6004  -2.5981  -1.9645  -1.9618  -1.4453  -1.4427  -0.0047   0.0009
     0.5107   0.5142   1.8158   1.8435   2.5481   2.5556   3.8974

          k = 0.0625 0.3248 0.0000 ( 37734 PWs)   bands (ev):

   -61.8813 -61.8804 -48.2921 -48.2914 -48.2906 -48.2900 -48.2893 -48.2887
   -48.2879 -48.2873 -48.2479 -48.2472 -48.2467 -48.2465 -48.2463 -48.2458
   -48.2454 -48.2450 -48.2266 -48.2258 -48.2252 -48.2246 -36.0659 -36.0645
   -35.9789 -35.9779 -35.9426 -35.9413 -14.2628 -14.2596 -13.9286 -13.9262
    -5.4458  -5.4416  -4.9247  -4.9217  -4.7805  -4.7768  -3.4625  -3.4580
    -2.7257  -2.7241  -2.2794  -2.2771  -1.4346  -1.4322   0.0464   0.0511
     0.6598   0.6624   1.9540   1.9786   2.6378   2.6512   4.4199

          k = 0.0625 0.3969 0.0000 ( 37770 PWs)   bands (ev):

   -61.8768 -61.8759 -48.2921 -48.2913 -48.2906 -48.2899 -48.2885 -48.2879
   -48.2871 -48.2865 -48.2483 -48.2473 -48.2469 -48.2469 -48.2464 -48.2459
   -48.2455 -48.2451 -48.2262 -48.2254 -48.2248 -48.2242 -36.1126 -36.1112
   -35.9685 -35.9675 -35.9549 -35.9536 -13.9466 -13.9434 -13.6844 -13.6818
    -5.8158  -5.8118  -5.4815  -5.4782  -4.5592  -4.5563  -3.7075  -3.7034
    -2.9896  -2.9881  -2.4975  -2.4954  -1.3664  -1.3640   0.2444   0.2471
     0.8172   0.8192   2.2467   2.2609   2.8066   2.8269   4.9787

          k = 0.0625 0.4691 0.0000 ( 37798 PWs)   bands (ev):

   -61.8733 -61.8724 -48.2921 -48.2912 -48.2907 -48.2898 -48.2879 -48.2873
   -48.2865 -48.2859 -48.2485 -48.2474 -48.2472 -48.2470 -48.2464 -48.2461
   -48.2456 -48.2451 -48.2259 -48.2250 -48.2245 -48.2238 -36.1482 -36.1467
   -35.9647 -35.9634 -35.9600 -35.9590 -13.7492 -13.7457 -13.3988 -13.3962
    -6.4708  -6.4670  -5.5879  -5.5850  -4.5536  -4.5512  -3.8014  -3.7969
    -3.1046  -3.1028  -2.6028  -2.6011  -1.3264  -1.3241   0.4870   0.4886
     0.9996   1.0011   2.4772   2.4812   3.0644   3.0838   5.0978

          k = 0.0625 0.5413 0.0000 ( 37791 PWs)   bands (ev):

   -61.8715 -61.8706 -48.2921 -48.2912 -48.2907 -48.2898 -48.2876 -48.2869
   -48.2861 -48.2856 -48.2487 -48.2475 -48.2473 -48.2470 -48.2465 -48.2461
   -48.2457 -48.2452 -48.2257 -48.2249 -48.2243 -48.2237 -36.1673 -36.1658
   -35.9696 -35.9683 -35.9559 -35.9549 -13.6560 -13.6524 -13.2036 -13.2011
    -6.8577  -6.8539  -5.5703  -5.5681  -4.7635  -4.7609  -3.8189  -3.8142
    -2.9914  -2.9896  -2.6751  -2.6737  -1.3275  -1.3253   0.6672   0.6693
     1.1296   1.1304   2.5757   2.5780   3.3135   3.3224   4.6439

          k = 0.1250 0.2165 0.0000 ( 37731 PWs)   bands (ev):

   -61.8868 -61.8859 -48.2921 -48.2914 -48.2906 -48.2904 -48.2901 -48.2898
   -48.2890 -48.2884 -48.2475 -48.2470 -48.2464 -48.2462 -48.2461 -48.2456
   -48.2451 -48.2450 -48.2271 -48.2263 -48.2258 -48.2251 -36.0051 -36.0038
   -35.9920 -35.9910 -35.9298 -35.9285 -14.6577 -14.6545 -14.1480 -14.1459
    -5.5835  -5.5804  -4.9163  -4.9116  -3.6946  -3.6901  -3.0101  -3.0077
    -2.8645  -2.8603  -1.9325  -1.9297  -1.3246  -1.3210   0.0514   0.0540
     0.3098   0.3169   2.1440   2.1778   2.1844   2.1879   3.8362

          k = 0.1250 0.2887 0.0000 ( 37723 PWs)   bands (ev):

   -61.8823 -61.8814 -48.2919 -48.2912 -48.2905 -48.2899 -48.2897 -48.2890
   -48.2882 -48.2877 -48.2478 -48.2471 -48.2466 -48.2464 -48.2463 -48.2457
   -48.2453 -48.2451 -48.2267 -48.2259 -48.2253 -48.2247 -36.0487 -36.0473
   -35.9817 -35.9806 -35.9458 -35.9444 -14.3353 -14.3321 -13.9808 -13.9784
    -5.2697  -5.2657  -5.0806  -5.0769  -4.4624  -4.4586  -3.4623  -3.4592
    -2.9541  -2.9505  -2.2000  -2.1983  -1.1973  -1.1947  -0.1619  -0.1583
     0.6034   0.6089   1.8706   1.8759   2.4557   2.4904   4.3079

          k = 0.1250 0.3608 0.0000 ( 37761 PWs)   bands (ev):

   -61.8778 -61.8769 -48.2918 -48.2911 -48.2904 -48.2897 -48.2889 -48.2883
   -48.2875 -48.2869 -48.2481 -48.2473 -48.2468 -48.2468 -48.2464 -48.2459
   -48.2455 -48.2452 -48.2263 -48.2255 -48.2249 -48.2243 -36.0916 -36.0902
   -35.9718 -35.9708 -35.9615 -35.9602 -13.9952 -13.9920 -13.7798 -13.7772
    -5.4726  -5.4683  -5.2623  -5.2589  -4.6663  -4.6633  -3.8503  -3.8470
    -3.0534  -3.0504  -2.6301  -2.6286  -1.0660  -1.0640  -0.1263  -0.1233
     0.8874   0.8904   1.7889   1.7940   2.7668   2.7990   4.8612

          k = 0.1250 0.4330 0.0000 ( 37768 PWs)   bands (ev):

   -61.8740 -61.8731 -48.2918 -48.2909 -48.2903 -48.2895 -48.2883 -48.2877
   -48.2869 -48.2863 -48.2484 -48.2475 -48.2470 -48.2469 -48.2465 -48.2461
   -48.2455 -48.2452 -48.2260 -48.2251 -48.2246 -48.2239 -36.1276 -36.1261
   -35.9769 -35.9755 -35.9616 -35.9606 -13.7452 -13.7419 -13.5167 -13.5140
    -6.0623  -6.0585  -5.5214  -5.5179  -4.3956  -4.3930  -4.0776  -4.0740
    -3.1650  -3.1624  -2.9787  -2.9769  -1.0336  -1.0322   0.1178   0.1198
     1.0786   1.0802   1.8995   1.9033   3.0521   3.0749   5.3490

          k = 0.1250 0.5052 0.0000 ( 37794 PWs)   bands (ev):

   -61.8715 -61.8706 -48.2917 -48.2908 -48.2903 -48.2894 -48.2879 -48.2873
   -48.2865 -48.2859 -48.2486 -48.2476 -48.2472 -48.2469 -48.2465 -48.2463
   -48.2456 -48.2453 -48.2257 -48.2249 -48.2243 -48.2237 -36.1515 -36.1500
   -35.9859 -35.9846 -35.9559 -35.9549 -13.6133 -13.6098 -13.2677 -13.2651
    -6.5655  -6.5618  -5.5546  -5.5517  -4.5682  -4.5657  -4.0293  -4.0254
    -3.2463  -3.2440  -3.0426  -3.0407  -1.0907  -1.0897   0.4562   0.4577
     1.1282   1.1294   2.0672   2.0695   3.2463   3.2571   5.2337

          k = 0.1250 0.5774 0.0000 ( 37780 PWs)   bands (ev):

   -61.8706 -61.8697 -48.2917 -48.2908 -48.2903 -48.2894 -48.2878 -48.2871
   -48.2863 -48.2858 -48.2486 -48.2477 -48.2472 -48.2470 -48.2466 -48.2463
   -48.2456 -48.2453 -48.2256 -48.2248 -48.2242 -48.2236 -36.1599 -36.1584
   -35.9892 -35.9878 -35.9539 -35.9529 -13.5697 -13.5661 -13.1684 -13.1658
    -6.7490  -6.7453  -5.5466  -5.5440  -4.6829  -4.6802  -4.0257  -4.0217
    -3.2755  -3.2733  -2.9972  -2.9953  -1.1298  -1.1288   0.6579   0.6596
     1.0798   1.0806   2.1506   2.1524   3.3142   3.3193   5.0110

          k = 0.1875 0.3248 0.0000 ( 37725 PWs)   bands (ev):

   -61.8782 -61.8773 -48.2917 -48.2909 -48.2902 -48.2896 -48.2891 -48.2885
   -48.2877 -48.2871 -48.2481 -48.2472 -48.2468 -48.2467 -48.2465 -48.2458
   -48.2454 -48.2452 -48.2263 -48.2255 -48.2250 -48.2243 -36.0820 -36.0806
   -35.9739 -35.9728 -35.9651 -35.9638 -14.0105 -14.0074 -13.8145 -13.8119
    -5.3403  -5.3359  -5.0937  -5.0899  -4.7553  -4.7524  -3.8533  -3.8508
    -3.3343  -3.3303  -2.5107  -2.5095  -0.8978  -0.8955  -0.3061  -0.3032
     0.8852   0.8891   1.6035   1.6056   2.7539   2.7897   4.8158

          k = 0.1875 0.3969 0.0000 ( 37753 PWs)   bands (ev):

   -61.8744 -61.8735 -48.2914 -48.2906 -48.2900 -48.2892 -48.2887 -48.2880
   -48.2872 -48.2867 -48.2483 -48.2474 -48.2470 -48.2469 -48.2465 -48.2460
   -48.2456 -48.2453 -48.2260 -48.2251 -48.2246 -48.2240 -36.1108 -36.1094
   -35.9892 -35.9878 -35.9624 -35.9614 -13.7075 -13.7044 -13.6171 -13.6143
    -5.6934  -5.6896  -5.4440  -5.4400  -4.3547  -4.3519  -4.2053  -4.2026
    -3.6599  -3.6565  -2.9095  -2.9082  -0.6911  -0.6896  -0.2376  -0.2356
     1.1077   1.1097   1.5225   1.5252   3.0531   3.0780   5.3694

          k = 0.1875 0.4691 0.0000 ( 37759 PWs)   bands (ev):

   -61.8715 -61.8706 -48.2912 -48.2904 -48.2898 -48.2890 -48.2884 -48.2877
   -48.2869 -48.2864 -48.2484 -48.2476 -48.2471 -48.2470 -48.2466 -48.2463
   -48.2457 -48.2453 -48.2257 -48.2249 -48.2243 -48.2237 -36.1317 -36.1302
   -36.0062 -36.0048 -35.9559 -35.9549 -13.5471 -13.5438 -13.3548 -13.3520
    -6.1776  -6.1739  -5.5113  -5.5077  -4.4273  -4.4243  -4.1186  -4.1158
    -3.8854  -3.8827  -3.1795  -3.1779  -0.7424  -0.7417   0.1047   0.1060
     1.1483   1.1496   1.6735   1.6763   3.2253   3.2366   5.6550

          k = 0.1875 0.5413 0.0000 ( 37793 PWs)   bands (ev):

   -61.8699 -61.8690 -48.2911 -48.2902 -48.2897 -48.2888 -48.2882 -48.2875
   -48.2867 -48.2862 -48.2485 -48.2478 -48.2471 -48.2471 -48.2466 -48.2464
   -48.2457 -48.2453 -48.2256 -48.2247 -48.2242 -48.2236 -36.1426 -36.1412
   -36.0159 -36.0145 -35.9523 -35.9513 -13.4696 -13.4661 -13.1853 -13.1825
    -6.4550  -6.4513  -5.5398  -5.5366  -4.5208  -4.5178  -4.1613  -4.1583
    -3.9602  -3.9579  -3.2007  -3.1988  -0.8303  -0.8298   0.4718   0.4727
     1.0009   1.0022   1.8849   1.8867   3.2251   3.2294   5.6127

          k = 0.2500 0.4330 0.0000 ( 37711 PWs)   bands (ev):

   -61.8715 -61.8706 -48.2910 -48.2901 -48.2895 -48.2887 -48.2886 -48.2879
   -48.2871 -48.2866 -48.2484 -48.2476 -48.2471 -48.2470 -48.2466 -48.2462
   -48.2458 -48.2453 -48.2257 -48.2249 -48.2243 -48.2237 -36.1213 -36.1198
   -36.0168 -36.0154 -35.9559 -35.9549 -13.4853 -13.4821 -13.4251 -13.4222
    -5.9571  -5.9534  -5.4798  -5.4759  -4.4088  -4.4063  -4.2488  -4.2455
    -4.0442  -4.0414  -3.2752  -3.2740  -0.3319  -0.3306  -0.3107  -0.3096
     1.1437   1.1449   1.5484   1.5513   3.2238   3.2351   5.8116

          k = 0.2500 0.5052 0.0000 ( 37776 PWs)   bands (ev):

   -61.8695 -61.8686 -48.2906 -48.2897 -48.2892 -48.2886 -48.2883 -48.2879
   -48.2871 -48.2866 -48.2484 -48.2478 -48.2472 -48.2470 -48.2465 -48.2464
   -48.2459 -48.2452 -48.2256 -48.2247 -48.2242 -48.2235 -36.1238 -36.1224
   -36.0399 -36.0385 -35.9515 -35.9505 -13.3756 -13.3723 -13.2381 -13.2352
    -6.1048  -6.1012  -5.5315  -5.5277  -4.6682  -4.6647  -4.3860  -4.3838
    -3.9704  -3.9681  -3.5131  -3.5115  -0.4340  -0.4335   0.0619   0.0624
     0.9641   0.9654   1.8401   1.8429   3.1560   3.1591   5.7948

          k = 0.2500 0.5774 0.0000 ( 37791 PWs)   bands (ev):

   -61.8688 -61.8679 -48.2904 -48.2895 -48.2890 -48.2886 -48.2882 -48.2880
   -48.2872 -48.2866 -48.2483 -48.2479 -48.2473 -48.2470 -48.2465 -48.2465
   -48.2460 -48.2452 -48.2255 -48.2247 -48.2241 -48.2235 -36.1233 -36.1218
   -36.0494 -36.0480 -35.9499 -35.9490 -13.3370 -13.3336 -13.1683 -13.1653
    -6.1478  -6.1442  -5.5617  -5.5580  -4.8212  -4.8176  -4.2063  -4.2041
    -4.1866  -4.1847  -3.5139  -3.5121  -0.4848  -0.4845   0.3206   0.3206
     0.7568   0.7587   2.0598   2.0612   3.0193   3.0214   5.6832

          k = 0.3125 0.5413 0.0000 ( 37789 PWs)   bands (ev):

   -61.8685 -61.8676 -48.2900 -48.2892 -48.2889 -48.2885 -48.2883 -48.2878
   -48.2875 -48.2870 -48.2482 -48.2480 -48.2474 -48.2468 -48.2466 -48.2465
   -48.2461 -48.2452 -48.2255 -48.2246 -48.2241 -48.2234 -36.1058 -36.1043
   -36.0719 -36.0705 -35.9491 -35.9481 -13.2576 -13.2542 -13.1957 -13.1926
    -5.8435  -5.8400  -5.5715  -5.5675  -5.2608  -5.2574  -4.2193  -4.2174
    -3.8812  -3.8791  -3.8787  -3.8777  -0.1473  -0.1467   0.0301   0.0303
     0.6572   0.6593   2.2673   2.2697   2.8323   2.8341   5.6162

     the Fermi energy is    -0.2964 ev

!    total energy              =   -2326.92221318 Ry
     total all-electron energy =    -35628.670042 Ry
     estimated scf accuracy    <          6.1E-09 Ry
     smearing contrib. (-TS)   =       0.00090103 Ry
     internal energy E=F+TS    =   -2326.92311421 Ry

     The total energy is F=E-TS. E is the sum of the following terms:
     one-electron contribution =  -20486.72786249 Ry
     hartree contribution      =   10231.59149470 Ry
     xc contribution           =    -152.42424353 Ry
     ewald contribution        =    9091.15193321 Ry
     one-center paw contrib.   =   -1010.51443610 Ry

     convergence has been achieved in  23 iterations

     Writing all to output data dir ./tmp/cleave_023/mose2_cleave_023.save/ :
     XML data file, charge density, pseudopotentials, collected wavefunctions

     init_run     :     11.91s CPU     12.12s WALL (       1 calls)
     electrons    :    442.98s CPU    452.76s WALL (       1 calls)

     Called by init_run:
     wfcinit      :      5.53s CPU      5.56s WALL (       1 calls)
     potinit      :      5.74s CPU      5.79s WALL (       1 calls)
     hinit0       :      0.05s CPU      0.06s WALL (       1 calls)

     Called by electrons:
     c_bands      :    369.63s CPU    373.58s WALL (      24 calls)
     sum_band     :     48.36s CPU     51.16s WALL (      24 calls)
     v_of_rho     :     14.79s CPU     15.63s WALL (      24 calls)
     newd         :      8.86s CPU     11.10s WALL (      24 calls)
     PAW_pot      :      1.47s CPU      1.52s WALL (      24 calls)
     mix_rho      :      5.74s CPU      5.79s WALL (      24 calls)
     vdW_kernel   :      5.28s CPU      5.29s WALL (       1 calls)

     Called by c_bands:
     init_us_2    :      2.97s CPU      2.98s WALL (    1470 calls)
     cegterg      :    361.51s CPU    365.29s WALL (     720 calls)

     Called by *egterg:
     cdiaghg      :     10.56s CPU     10.58s WALL (    3241 calls)
     h_psi        :    155.93s CPU    157.16s WALL (    3301 calls)
     s_psi        :     31.44s CPU     31.49s WALL (    3301 calls)
     g_psi        :      0.53s CPU      0.53s WALL (    2551 calls)

     Called by h_psi:
     h_psi:calbec :     46.55s CPU     47.13s WALL (    3301 calls)
     vloc_psi     :     70.14s CPU     70.74s WALL (    3301 calls)
                                        0.00s GPU  (    3301 calls)
     add_vuspsi   :     38.70s CPU     38.75s WALL (    3301 calls)

     General routines
     calbec       :     66.64s CPU     67.47s WALL (    4021 calls)
     fft          :      5.72s CPU      5.83s WALL (    1511 calls)
     ffts         :      2.06s CPU      2.07s WALL (    2754 calls)
     fftw         :     77.69s CPU     78.36s WALL (  215872 calls)
     interpolate  :      0.11s CPU      0.11s WALL (      24 calls)

     Parallel routines

     PWSCF        :   7m35.50s CPU   7m45.75s WALL


   This run was terminated on:  11:52: 3  20Jun2026            

=------------------------------------------------------------------------------=
   JOB DONE.
=------------------------------------------------------------------------------=
Note: The following floating-point exceptions are signalling: IEEE_UNDERFLOW_FLAG IEEE_DENORMAL
Note: The following floating-point exceptions are signalling: IEEE_UNDERFLOW_FLAG IEEE_DENORMAL
Note: The following floating-point exceptions are signalling: IEEE_UNDERFLOW_FLAG IEEE_DENORMAL
Note: The following floating-point exceptions are signalling: IEEE_UNDERFLOW_FLAG IEEE_DENORMAL
Note: The following floating-point exceptions are signalling: IEEE_UNDERFLOW_FLAG IEEE_DENORMAL
Note: The following floating-point exceptions are signalling: IEEE_UNDERFLOW_FLAG IEEE_DENORMAL
Note: The following floating-point exceptions are signalling: IEEE_UNDERFLOW_FLAG IEEE_DENORMAL
Note: The following floating-point exceptions are signalling: IEEE_UNDERFLOW_FLAG IEEE_DENORMAL
Note: The following floating-point exceptions are signalling: IEEE_UNDERFLOW_FLAG IEEE_DENORMAL
Note: The following floating-point exceptions are signalling: IEEE_UNDERFLOW_FLAG IEEE_DENORMAL
Note: The following floating-point exceptions are signalling: IEEE_UNDERFLOW_FLAG IEEE_DENORMAL
Note: The following floating-point exceptions are signalling: IEEE_UNDERFLOW_FLAG IEEE_DENORMAL
Note: The following floating-point exceptions are signalling: IEEE_UNDERFLOW_FLAG IEEE_DENORMAL
Note: The following floating-point exceptions are signalling: IEEE_UNDERFLOW_FLAG IEEE_DENORMAL
Note: The following floating-point exceptions are signalling: IEEE_UNDERFLOW_FLAG IEEE_DENORMAL
Note: The following floating-point exceptions are signalling: IEEE_UNDERFLOW_FLAG IEEE_DENORMAL
Note: The following floating-point exceptions are signalling: IEEE_UNDERFLOW_FLAG IEEE_DENORMAL
Note: The following floating-point exceptions are signalling: IEEE_UNDERFLOW_FLAG IEEE_DENORMAL
Note: The following floating-point exceptions are signalling: IEEE_UNDERFLOW_FLAG IEEE_DENORMAL
Note: The following floating-point exceptions are signalling: IEEE_UNDERFLOW_FLAG IEEE_DENORMAL
Note: The following floating-point exceptions are signalling: IEEE_UNDERFLOW_FLAG IEEE_DENORMAL
Note: The following floating-point exceptions are signalling: IEEE_UNDERFLOW_FLAG IEEE_DENORMAL
Note: The following floating-point exceptions are signalling: IEEE_UNDERFLOW_FLAG IEEE_DENORMAL
Note: The following floating-point exceptions are signalling: IEEE_UNDERFLOW_FLAG IEEE_DENORMAL
