
     Program PWSCF v.7.5 starts on 20Jun2026 at  9: 1:23 

     This program is part of the open-source Quantum ESPRESSO suite
     for quantum simulation of materials; please cite
         "P. Giannozzi et al., J. Phys.:Condens. Matter 21 395502 (2009);
         "P. Giannozzi et al., J. Phys.:Condens. Matter 29 465901 (2017);
         "P. Giannozzi et al., J. Chem. Phys. 152 154105 (2020);
          URL http://www.quantum-espresso.org", 
     in publications or presentations arising from this work. More details at
     http://www.quantum-espresso.org/quote

     Parallel version (MPI), running on    24 processors

     MPI processes distributed on     1 nodes
     6428 MiB available memory on the printing compute node when the environment starts

     Waiting for input...
     Reading input from standard input

     Current dimensions of program PWSCF are:
     Max number of different atomic species (ntypx) = 10
     Max number of k-points (npk) =  40000
     Max angular momentum in pseudopotentials (lmaxx) =  4
     file Mo.pbe-spn-kjpaw_psl.1.0.0.UPF: wavefunction(s)  4S 4D renormalized
     file Se.pbe-dn-kjpaw_psl.1.0.0.UPF: wavefunction(s)  4S 4P 3D renormalized

     IMPORTANT: XC functional enforced from input :
     Exchange-correlation= VDW-DF2-B86R
                           (   1   4  26   0   2   0   0)
     Any further DFT definition will be discarded
     Please, verify this is what you really want


     R & G space division:  proc/nbgrp/npool/nimage =      24
     Subspace diagonalization in iterative solution of the eigenvalue problem:
     a serial algorithm will be used


     Parallelization info
     --------------------
     sticks:   dense  smooth     PW     G-vecs:    dense   smooth      PW
     Min          69      35     10                35537    12585    1924
     Max          70      36     11                35620    12648    1981
     Sum        1675     847    241               853823   302525   46513

     Using Slab Decomposition



     bravais-lattice index     =            4
     lattice parameter (alat)  =       6.1794  a.u.
     unit-cell volume          =    3124.5879 (a.u.)^3
     number of atoms/cell      =            6
     number of atomic types    =            2
     number of electrons       =        92.00
     number of Kohn-Sham states=           55
     kinetic-energy cutoff     =      80.0000  Ry
     charge density cutoff     =     640.0000  Ry
     scf convergence threshold =      1.0E-08
     mixing beta               =       0.3000
     number of iterations used =            8  local-TF  mixing
     Exchange-correlation= VDW-DF2-B86R
                           (   1   4  26   0   2   0   0)

     celldm(1)=   6.179404  celldm(2)=   0.000000  celldm(3)=  15.290520
     celldm(4)=   0.000000  celldm(5)=   0.000000  celldm(6)=   0.000000

     crystal axes: (cart. coord. in units of alat)
               a(1) = (   1.000000   0.000000   0.000000 )  
               a(2) = (  -0.500000   0.866025   0.000000 )  
               a(3) = (   0.000000   0.000000  15.290520 )  

     reciprocal axes: (cart. coord. in units 2 pi/alat)
               b(1) = (  1.000000  0.577350 -0.000000 )  
               b(2) = (  0.000000  1.154701  0.000000 )  
               b(3) = (  0.000000 -0.000000  0.065400 )  


     PseudoPot. # 1 for Mo read from file:
     ./pseudo/Mo.pbe-spn-kjpaw_psl.1.0.0.UPF
     MD5 check sum: 4396e0c640fcce5c25f020efccf1ab12
     Pseudo is Projector augmented-wave + core cor, Zval = 14.0
     Generated using &quot;atomic&quot; code by A. Dal Corso  v.6.3
     Shape of augmentation charge: PSQ
     Using radial grid of 1229 points,  6 beta functions with: 
                l(1) =   0
                l(2) =   0
                l(3) =   1
                l(4) =   1
                l(5) =   2
                l(6) =   2
     Q(r) pseudized with 0 coefficients 


     PseudoPot. # 2 for Se read from file:
     ./pseudo/Se.pbe-dn-kjpaw_psl.1.0.0.UPF
     MD5 check sum: ac240dd2bae32a30e0bf3a38df9c8785
     Pseudo is Projector augmented-wave + core cor, Zval = 16.0
     Generated using &quot;atomic&quot; code by A. Dal Corso  v.6.3
     Shape of augmentation charge: PSQ
     Using radial grid of 1211 points,  6 beta functions with: 
                l(1) =   0
                l(2) =   0
                l(3) =   1
                l(4) =   1
                l(5) =   2
                l(6) =   2
     Q(r) pseudized with 0 coefficients 


     atomic species   valence    mass     pseudopotential
     Mo               14.00    95.96000     Mo( 1.00)
     Se               16.00    78.96000     Se( 1.00)

      6 Sym. Ops. (no inversion) found



   Cartesian axes

     site n.     atom                  positions (alat units)
         1        Se     tau(   1) = (  -0.0000005   0.5773506   6.1238532  )
         2        Mo     tau(   2) = (   0.0000000   0.0000000   6.6502752  )
         3        Se     tau(   3) = (   0.5000005   0.2886748   7.1775994  )
         4        Se     tau(   4) = (  -0.0000005   0.5773506   8.2346636  )
         5        Mo     tau(   5) = (   0.5000005   0.2886748   8.7618502  )
         6        Se     tau(   6) = (   0.0000000   0.0000000   9.2889908  )

     number of k points=    30  Methfessel-Paxton smearing, width (Ry)=  0.0200
                       cart. coord. in units 2pi/alat
        k(    1) = (   0.0000000   0.0000000   0.0000000), wk =   0.0078125
        k(    2) = (   0.0000000   0.0721688   0.0000000), wk =   0.0468750
        k(    3) = (   0.0000000   0.1443376   0.0000000), wk =   0.0468750
        k(    4) = (   0.0000000   0.2165064   0.0000000), wk =   0.0468750
        k(    5) = (   0.0000000   0.2886751   0.0000000), wk =   0.0468750
        k(    6) = (   0.0000000   0.3608439   0.0000000), wk =   0.0468750
        k(    7) = (   0.0000000   0.4330127   0.0000000), wk =   0.0468750
        k(    8) = (   0.0000000   0.5051815   0.0000000), wk =   0.0468750
        k(    9) = (   0.0000000  -0.5773503   0.0000000), wk =   0.0234375
        k(   10) = (   0.0625000   0.1082532   0.0000000), wk =   0.0468750
        k(   11) = (   0.0625000   0.1804220   0.0000000), wk =   0.0937500
        k(   12) = (   0.0625000   0.2525907   0.0000000), wk =   0.0937500
        k(   13) = (   0.0625000   0.3247595   0.0000000), wk =   0.0937500
        k(   14) = (   0.0625000   0.3969283   0.0000000), wk =   0.0937500
        k(   15) = (   0.0625000   0.4690971   0.0000000), wk =   0.0937500
        k(   16) = (   0.0625000   0.5412659   0.0000000), wk =   0.0937500
        k(   17) = (   0.1250000   0.2165064   0.0000000), wk =   0.0468750
        k(   18) = (   0.1250000   0.2886751   0.0000000), wk =   0.0937500
        k(   19) = (   0.1250000   0.3608439   0.0000000), wk =   0.0937500
        k(   20) = (   0.1250000   0.4330127   0.0000000), wk =   0.0937500
        k(   21) = (   0.1250000   0.5051815   0.0000000), wk =   0.0937500
        k(   22) = (   0.1250000   0.5773503   0.0000000), wk =   0.0468750
        k(   23) = (   0.1875000   0.3247595   0.0000000), wk =   0.0468750
        k(   24) = (   0.1875000   0.3969283   0.0000000), wk =   0.0937500
        k(   25) = (   0.1875000   0.4690971   0.0000000), wk =   0.0937500
        k(   26) = (   0.1875000   0.5412659   0.0000000), wk =   0.0937500
        k(   27) = (   0.2500000   0.4330127   0.0000000), wk =   0.0468750
        k(   28) = (   0.2500000   0.5051815   0.0000000), wk =   0.0937500
        k(   29) = (   0.2500000   0.5773503   0.0000000), wk =   0.0468750
        k(   30) = (   0.3125000   0.5412659   0.0000000), wk =   0.0468750

     Dense  grid:   853823 G-vectors     FFT dimensions: (  50,  50, 768)

     Smooth grid:   302525 G-vectors     FFT dimensions: (  36,  36, 540)

     Estimated max dynamical RAM per process >     171.88 MB

     Estimated total dynamical RAM >       4.03 GB

     Initial potential from superposition of free atoms

     starting charge      91.9979, renormalised to      92.0000

     negative rho (up, down):  1.902E-04 0.000E+00


     %%%%%%%%%%%%%%%%%%%%%%%%%%%%%%%%%%%%%%%%%%%%%%%%%%%%%%%%%%%%%%%%%%%%%%%%
     %                                                                      %
     % You are using vdW-DF, which was implemented by the Thonhauser group. %
     % Please cite the following two papers that made this development      %
     % possible and the two reviews that describe the various versions:     %
     %                                                                      %
     %   T. Thonhauser et al., PRL 115, 136402 (2015).                      %
     %   T. Thonhauser et al., PRB 76, 125112 (2007).                       %
     %   K. Berland et al., Rep. Prog. Phys. 78, 066501 (2015).             %
     %   D.C. Langreth et al., J. Phys.: Condens. Matter 21, 084203 (2009). %
     %                                                                      %
     % If you are calculating stress with vdW-DF, please also cite:         %
     %                                                                      %
     %   R. Sabatini et al., J. Phys.: Condens. Matter 24, 424209 (2012).   %
     %                                                                      %
     %%%%%%%%%%%%%%%%%%%%%%%%%%%%%%%%%%%%%%%%%%%%%%%%%%%%%%%%%%%%%%%%%%%%%%%%

     %%%%%%%%%%%%%%%%%%%%%%%%%%%%%%%%%%%%%%%%%%%%%%%%%%%%%%%%%%%%%%%%%%%%%%%%
     %                                                                      %
     %  vdW-DF NEWS:                                                        %
     %                                                                      %
     %  * vdW-DF3 is now available. DOI: 10.1021/acs.jctc.0c00471           %
     %    use with input_dft = 'vdW-DF3-opt1' or 'vdW-DF3-opt2'             %
     %                                                                      %
     %  * Unscreened and range-separated hybrid vdW-DF-cx functionals       %
     %    DOI: 10.1063/1.4986522 and 10.1088/1361-648X/ac2ad2               %
     %    use with input_dft = 'vdW-DF-cx0'    and 'vdW-DF-ahcx'            %
     %  * Unscreened and range-separated hybrid vdW-DF2-b86r functionals    %
     %    DOI: 10.1063/1.4986522 and DOI: 10.1103/PhysRevX.12.041003        %
     %    use with input_dft = 'vdW-DF2-br0' and 'vdW-DF2-ahbr'             %
     %                                                                      %
     %%%%%%%%%%%%%%%%%%%%%%%%%%%%%%%%%%%%%%%%%%%%%%%%%%%%%%%%%%%%%%%%%%%%%%%%


     Starting wfcs are   56 randomized atomic wfcs
     Checking if some PAW data can be deallocated... 

     total cpu time spent up to now is       12.2 secs

     per-process dynamical memory:    79.7 Mb

     Self-consistent Calculation

     iteration #  1     ecut=    80.00 Ry     beta= 0.30
     Davidson diagonalization with overlap
     ethr =  1.00E-02,  avg # of iterations =  4.4

     Threshold (ethr) on eigenvalues was too large:
     Diagonalizing with lowered threshold

     Davidson diagonalization with overlap
     ethr =  4.33E-04,  avg # of iterations =  2.3

     negative rho (up, down):  6.541E-05 0.000E+00

     total cpu time spent up to now is       50.6 secs

     total energy              =   -2326.97513366 Ry
     estimated scf accuracy    <       0.44490053 Ry

     iteration #  2     ecut=    80.00 Ry     beta= 0.30
     Davidson diagonalization with overlap
     ethr =  4.84E-04,  avg # of iterations =  1.6

     negative rho (up, down):  5.260E-05 0.000E+00

     total cpu time spent up to now is       67.1 secs

     total energy              =   -2326.92979058 Ry
     estimated scf accuracy    <       0.22818093 Ry

     iteration #  3     ecut=    80.00 Ry     beta= 0.30
     Davidson diagonalization with overlap
     ethr =  2.48E-04,  avg # of iterations =  3.6

     negative rho (up, down):  3.212E-05 0.000E+00

     total cpu time spent up to now is       85.8 secs

     total energy              =   -2326.93732319 Ry
     estimated scf accuracy    <       0.02753677 Ry

     iteration #  4     ecut=    80.00 Ry     beta= 0.30
     Davidson diagonalization with overlap
     ethr =  2.99E-05,  avg # of iterations =  7.5

     negative rho (up, down):  1.862E-05 0.000E+00

     total cpu time spent up to now is      106.7 secs

     total energy              =   -2326.93798967 Ry
     estimated scf accuracy    <       0.00827180 Ry

     iteration #  5     ecut=    80.00 Ry     beta= 0.30
     Davidson diagonalization with overlap
     ethr =  8.99E-06,  avg # of iterations =  3.5

     negative rho (up, down):  1.631E-06 0.000E+00

     total cpu time spent up to now is      126.4 secs

     total energy              =   -2326.93769742 Ry
     estimated scf accuracy    <       0.00400311 Ry

     iteration #  6     ecut=    80.00 Ry     beta= 0.30
     Davidson diagonalization with overlap
     ethr =  4.35E-06,  avg # of iterations =  4.9

     negative rho (up, down):  4.848E-07 0.000E+00

     total cpu time spent up to now is      145.7 secs

     total energy              =   -2326.93750984 Ry
     estimated scf accuracy    <       0.00213221 Ry

     iteration #  7     ecut=    80.00 Ry     beta= 0.30
     Davidson diagonalization with overlap
     ethr =  2.32E-06,  avg # of iterations =  6.3

     negative rho (up, down):  1.245E-04 0.000E+00

     total cpu time spent up to now is      164.6 secs

     total energy              =   -2326.93729628 Ry
     estimated scf accuracy    <       0.00177164 Ry

     iteration #  8     ecut=    80.00 Ry     beta= 0.30
     Davidson diagonalization with overlap
     ethr =  1.93E-06,  avg # of iterations =  6.5

     negative rho (up, down):  9.090E-04 0.000E+00

     total cpu time spent up to now is      183.9 secs

     total energy              =   -2326.93730345 Ry
     estimated scf accuracy    <       0.00078675 Ry

     iteration #  9     ecut=    80.00 Ry     beta= 0.30
     Davidson diagonalization with overlap
     ethr =  8.55E-07,  avg # of iterations =  2.5

     negative rho (up, down):  2.403E-03 0.000E+00

     total cpu time spent up to now is      201.5 secs

     total energy              =   -2326.93734856 Ry
     estimated scf accuracy    <       0.00057279 Ry

     iteration # 10     ecut=    80.00 Ry     beta= 0.30
     Davidson diagonalization with overlap
     ethr =  6.23E-07,  avg # of iterations =  6.8

     negative rho (up, down):  5.564E-03 0.000E+00

     total cpu time spent up to now is      221.5 secs

     total energy              =   -2326.93730295 Ry
     estimated scf accuracy    <       0.00042828 Ry

     iteration # 11     ecut=    80.00 Ry     beta= 0.30
     Davidson diagonalization with overlap
     ethr =  4.66E-07,  avg # of iterations =  4.3

     negative rho (up, down):  6.490E-03 0.000E+00

     total cpu time spent up to now is      238.8 secs

     total energy              =   -2326.93722679 Ry
     estimated scf accuracy    <       0.00034339 Ry

     iteration # 12     ecut=    80.00 Ry     beta= 0.30
     Davidson diagonalization with overlap
     ethr =  3.73E-07,  avg # of iterations =  4.6

     negative rho (up, down):  6.031E-03 0.000E+00

     total cpu time spent up to now is      256.5 secs

     total energy              =   -2326.93722384 Ry
     estimated scf accuracy    <       0.00023545 Ry

     iteration # 13     ecut=    80.00 Ry     beta= 0.30
     Davidson diagonalization with overlap
     ethr =  2.56E-07,  avg # of iterations =  2.6

     negative rho (up, down):  5.316E-03 0.000E+00

     total cpu time spent up to now is      273.3 secs

     total energy              =   -2326.93717201 Ry
     estimated scf accuracy    <       0.00019469 Ry

     iteration # 14     ecut=    80.00 Ry     beta= 0.30
     Davidson diagonalization with overlap
     c_bands:  1 eigenvalues not converged
     ethr =  2.12E-07,  avg # of iterations =  5.4

     negative rho (up, down):  4.095E-03 0.000E+00

     total cpu time spent up to now is      291.1 secs

     total energy              =   -2326.93714541 Ry
     estimated scf accuracy    <       0.00012840 Ry

     iteration # 15     ecut=    80.00 Ry     beta= 0.30
     Davidson diagonalization with overlap
     ethr =  1.40E-07,  avg # of iterations =  4.5

     negative rho (up, down):  3.913E-03 0.000E+00

     total cpu time spent up to now is      308.2 secs

     total energy              =   -2326.93714886 Ry
     estimated scf accuracy    <       0.00007558 Ry

     iteration # 16     ecut=    80.00 Ry     beta= 0.30
     Davidson diagonalization with overlap
     ethr =  8.21E-08,  avg # of iterations =  2.9

     negative rho (up, down):  2.990E-03 0.000E+00

     total cpu time spent up to now is      325.1 secs

     total energy              =   -2326.93720141 Ry
     estimated scf accuracy    <       0.00003702 Ry

     iteration # 17     ecut=    80.00 Ry     beta= 0.30
     Davidson diagonalization with overlap
     ethr =  4.02E-08,  avg # of iterations =  5.6

     negative rho (up, down):  1.927E-03 0.000E+00

     total cpu time spent up to now is      342.7 secs

     total energy              =   -2326.93724075 Ry
     estimated scf accuracy    <       0.00001804 Ry

     iteration # 18     ecut=    80.00 Ry     beta= 0.30
     Davidson diagonalization with overlap
     ethr =  1.96E-08,  avg # of iterations =  5.3

     negative rho (up, down):  1.109E-03 0.000E+00

     total cpu time spent up to now is      362.2 secs

     total energy              =   -2326.93724613 Ry
     estimated scf accuracy    <       0.00000552 Ry

     iteration # 19     ecut=    80.00 Ry     beta= 0.30
     Davidson diagonalization with overlap
     ethr =  6.00E-09,  avg # of iterations =  3.6

     negative rho (up, down):  6.183E-04 0.000E+00

     total cpu time spent up to now is      379.7 secs

     total energy              =   -2326.93724779 Ry
     estimated scf accuracy    <       0.00000219 Ry

     iteration # 20     ecut=    80.00 Ry     beta= 0.30
     Davidson diagonalization with overlap
     ethr =  2.38E-09,  avg # of iterations =  4.4

     negative rho (up, down):  3.957E-04 0.000E+00

     total cpu time spent up to now is      398.2 secs

     total energy              =   -2326.93724606 Ry
     estimated scf accuracy    <       0.00000067 Ry

     iteration # 21     ecut=    80.00 Ry     beta= 0.30
     Davidson diagonalization with overlap
     ethr =  7.27E-10,  avg # of iterations =  2.8

     negative rho (up, down):  3.204E-04 0.000E+00

     total cpu time spent up to now is      418.0 secs

     total energy              =   -2326.93724597 Ry
     estimated scf accuracy    <       0.00000017 Ry

     iteration # 22     ecut=    80.00 Ry     beta= 0.30
     Davidson diagonalization with overlap
     ethr =  1.83E-10,  avg # of iterations =  2.0

     negative rho (up, down):  2.659E-04 0.000E+00

     total cpu time spent up to now is      435.9 secs

     total energy              =   -2326.93724598 Ry
     estimated scf accuracy    <       0.00000006 Ry

     iteration # 23     ecut=    80.00 Ry     beta= 0.30
     Davidson diagonalization with overlap
     ethr =  6.95E-11,  avg # of iterations =  2.1

     negative rho (up, down):  2.527E-04 0.000E+00

     total cpu time spent up to now is      455.3 secs

     total energy              =   -2326.93724601 Ry
     estimated scf accuracy    <       0.00000001 Ry

     iteration # 24     ecut=    80.00 Ry     beta= 0.30
     Davidson diagonalization with overlap
     ethr =  1.26E-11,  avg # of iterations =  1.7

     negative rho (up, down):  2.246E-04 0.000E+00

     total cpu time spent up to now is      472.0 secs

     End of self-consistent calculation

          k = 0.0000 0.0000 0.0000 ( 37787 PWs)   bands (ev):

   -61.9002 -61.8920 -48.3055 -48.3055 -48.3050 -48.3050 -48.2960 -48.2960
   -48.2921 -48.2921 -48.2635 -48.2635 -48.2588 -48.2588 -48.2557 -48.2557
   -48.2461 -48.2461 -48.2460 -48.2398 -48.2388 -48.2272 -36.0188 -36.0144
   -35.9036 -35.9036 -35.8926 -35.8926 -15.3483 -15.2647 -14.5425 -14.4287
    -6.6616  -6.2805  -3.7704  -3.3690  -3.3689  -3.3524  -3.3524  -2.9167
    -1.7425  -1.2546  -1.0706  -1.0705  -1.0595  -1.0595   0.2040   0.2040
     0.2407   0.2407   2.9148   2.9148   2.9664   2.9664   3.4379

          k = 0.0000 0.0722 0.0000 ( 37755 PWs)   bands (ev):

   -61.8993 -61.8910 -48.3055 -48.3053 -48.3050 -48.3048 -48.2960 -48.2959
   -48.2921 -48.2919 -48.2635 -48.2635 -48.2588 -48.2588 -48.2558 -48.2557
   -48.2461 -48.2461 -48.2459 -48.2397 -48.2387 -48.2272 -36.0166 -36.0122
   -35.9142 -35.9060 -35.9033 -35.8951 -15.2914 -15.2081 -14.5120 -14.3999
    -6.5848  -6.2036  -4.0612  -3.6934  -3.3372  -3.3204  -3.1286  -2.6696
    -1.7572  -1.4091  -1.2649  -1.2190  -1.2060  -1.1773   0.1104   0.1534
     0.3169   0.3546   2.6100   2.6520   2.8618   2.9220   3.5472

          k = 0.0000 0.1443 0.0000 ( 37697 PWs)   bands (ev):

   -61.8965 -61.8882 -48.3055 -48.3050 -48.3048 -48.3042 -48.2960 -48.2953
   -48.2920 -48.2913 -48.2637 -48.2636 -48.2590 -48.2589 -48.2559 -48.2558
   -48.2463 -48.2462 -48.2457 -48.2394 -48.2384 -48.2269 -36.0102 -36.0058
   -35.9443 -35.9334 -35.9130 -35.9020 -15.1248 -15.0423 -14.4226 -14.3158
    -6.3624  -5.9820  -4.4910  -4.1772  -3.2626  -3.2451  -2.9114  -2.5291
    -2.1157  -2.0260  -1.5572  -1.5092  -1.4920  -1.2500  -0.0418   0.1137
     0.5047   0.5483   2.0198   2.1013   2.7543   2.8296   3.8111

          k = 0.0000 0.2165 0.0000 ( 37653 PWs)   bands (ev):

   -61.8924 -61.8841 -48.3054 -48.3049 -48.3040 -48.3035 -48.2960 -48.2945
   -48.2920 -48.2905 -48.2640 -48.2636 -48.2592 -48.2589 -48.2562 -48.2559
   -48.2466 -48.2463 -48.2453 -48.2390 -48.2380 -48.2265 -36.0010 -35.9964
   -35.9888 -35.9779 -35.9233 -35.9124 -14.8611 -14.7805 -14.2810 -14.1829
    -6.0268  -5.6532  -4.8804  -4.6137  -3.2857  -3.2506  -3.2126  -3.1934
    -2.6097  -2.2715  -1.7356  -1.7137  -1.6441  -1.4184  -0.1038   0.1150
     0.6074   0.6586   1.6047   1.8674   2.6818   2.7708   4.1878

          k = 0.0000 0.2887 0.0000 ( 37721 PWs)   bands (ev):

   -61.8875 -61.8793 -48.3054 -48.3049 -48.3031 -48.3026 -48.2960 -48.2936
   -48.2920 -48.2897 -48.2643 -48.2638 -48.2595 -48.2590 -48.2565 -48.2560
   -48.2468 -48.2464 -48.2448 -48.2386 -48.2376 -48.2261 -36.0419 -36.0309
   -35.9890 -35.9846 -35.9355 -35.9246 -14.5262 -14.4495 -14.0960 -14.0096
    -5.7055  -5.3837  -5.0959  -4.8464  -4.3061  -4.2672  -3.2691  -3.2473
    -2.7662  -2.4995  -1.8681  -1.7834  -1.7543  -1.7362  -0.0567   0.2069
     0.6125   0.6649   1.6476   2.0880   2.6757   2.7785   4.6651

          k = 0.0000 0.3608 0.0000 ( 37749 PWs)   bands (ev):

   -61.8827 -61.8744 -48.3055 -48.3048 -48.3022 -48.3017 -48.2959 -48.2927
   -48.2920 -48.2888 -48.2646 -48.2639 -48.2598 -48.2591 -48.2568 -48.2561
   -48.2471 -48.2465 -48.2444 -48.2381 -48.2371 -48.2256 -36.0939 -36.0828
   -35.9777 -35.9734 -35.9477 -35.9367 -14.1738 -14.1052 -13.8688 -13.7958
    -5.7245  -5.5556  -5.2749  -5.2224  -4.8610  -4.5936  -3.4194  -3.3953
    -3.0909  -2.8939  -2.1320  -2.0143  -1.6857  -1.6442   0.1911   0.4533
     0.5958   0.6388   2.0228   2.5437   2.7044   2.8219   5.1552

          k = 0.0000 0.4330 0.0000 ( 37785 PWs)   bands (ev):

   -61.8786 -61.8703 -48.3055 -48.3048 -48.3014 -48.3009 -48.2959 -48.2920
   -48.2919 -48.2880 -48.2649 -48.2640 -48.2600 -48.2592 -48.2570 -48.2562
   -48.2473 -48.2466 -48.2440 -48.2378 -48.2368 -48.2252 -36.1376 -36.1265
   -35.9681 -35.9637 -35.9580 -35.9470 -13.9004 -13.8464 -13.5844 -13.5245
    -6.2372  -6.1894  -5.6968  -5.5115  -4.6246  -4.4809  -3.5796  -3.5540
    -3.3622  -3.1289  -2.2980  -2.2017  -1.5622  -1.5042   0.5712   0.6209
     0.6474   0.7851   2.5192   2.7337   2.8643   3.0090   4.8706

          k = 0.0000 0.5052 0.0000 ( 37822 PWs)   bands (ev):

   -61.8758 -61.8676 -48.3056 -48.3047 -48.3009 -48.3004 -48.2960 -48.2919
   -48.2915 -48.2875 -48.2650 -48.2640 -48.2601 -48.2593 -48.2572 -48.2562
   -48.2475 -48.2466 -48.2437 -48.2375 -48.2365 -48.2250 -36.1667 -36.1556
   -35.9649 -35.9616 -35.9573 -35.9539 -13.7452 -13.7068 -13.3164 -13.2713
    -6.7929  -6.7478  -5.6954  -5.5553  -4.7752  -4.6551  -3.6923  -3.6657
    -3.2610  -3.0079  -2.4144  -2.3446  -1.4835  -1.4115   0.6780   0.6925
     0.9441   1.0832   2.7511   2.8908   2.9777   3.3257   4.4602

          k = 0.0000-0.5774 0.0000 ( 37832 PWs)   bands (ev):

   -61.8748 -61.8666 -48.3056 -48.3047 -48.3007 -48.3002 -48.2960 -48.2919
   -48.2913 -48.2873 -48.2651 -48.2640 -48.2602 -48.2593 -48.2573 -48.2563
   -48.2476 -48.2466 -48.2437 -48.2374 -48.2364 -48.2249 -36.1769 -36.1657
   -35.9673 -35.9593 -35.9563 -35.9550 -13.6933 -13.6625 -13.2055 -13.1697
    -6.9960  -6.9555  -5.6335  -5.5648  -4.9125  -4.7930  -3.7321  -3.7053
    -3.1198  -2.9025  -2.4771  -2.4161  -1.4590  -1.3817   0.7070   0.7202
     1.1175   1.1988   2.7566   2.8994   3.2208   3.4524   4.1747

          k = 0.0625 0.1083 0.0000 ( 37709 PWs)   bands (ev):

   -61.8974 -61.8891 -48.3054 -48.3050 -48.3049 -48.3045 -48.2960 -48.2955
   -48.2920 -48.2915 -48.2636 -48.2635 -48.2589 -48.2588 -48.2559 -48.2558
   -48.2463 -48.2462 -48.2458 -48.2395 -48.2385 -48.2270 -36.0123 -36.0079
   -35.9343 -35.9233 -35.9110 -35.9001 -15.1796 -15.0968 -14.4520 -14.3435
    -6.4348  -6.0539  -4.3748  -4.0461  -3.2909  -3.2743  -2.9459  -2.5090
    -1.9191  -1.8306  -1.5240  -1.4947  -1.4432  -1.1821   0.0281   0.1546
     0.4080   0.4442   2.2650   2.2918   2.7259   2.7755   3.7303

          k = 0.0625 0.1804 0.0000 ( 37703 PWs)   bands (ev):

   -61.8940 -61.8857 -48.3054 -48.3049 -48.3043 -48.3038 -48.2960 -48.2949
   -48.2920 -48.2909 -48.2639 -48.2636 -48.2591 -48.2589 -48.2561 -48.2558
   -48.2465 -48.2462 -48.2454 -48.2392 -48.2382 -48.2267 -36.0043 -35.9999
   -35.9709 -35.9599 -35.9205 -35.9095 -14.9640 -14.8826 -14.3367 -14.2351
    -6.1515  -5.7729  -4.7496  -4.4664  -3.2873  -3.2694  -2.9306  -2.7429
    -2.5083  -2.3751  -1.8026  -1.7198  -1.5025  -1.2290   0.0051   0.1753
     0.4251   0.4517   1.9100   2.0558   2.5449   2.6114   4.0457

          k = 0.0625 0.2526 0.0000 ( 37702 PWs)   bands (ev):

   -61.8895 -61.8812 -48.3054 -48.3049 -48.3035 -48.3030 -48.2959 -48.2940
   -48.2920 -48.2901 -48.2641 -48.2637 -48.2594 -48.2590 -48.2563 -48.2559
   -48.2467 -48.2463 -48.2450 -48.2388 -48.2378 -48.2262 -36.0187 -36.0077
   -35.9936 -35.9892 -35.9329 -35.9219 -14.6628 -14.5841 -14.1744 -14.0831
    -5.7924  -5.4305  -5.0553  -4.8089  -3.8586  -3.8278  -3.2441  -3.2122
    -2.7037  -2.5125  -2.0046  -1.9317  -1.5158  -1.3412  -0.0775   0.1025
     0.4864   0.5743   1.7615   2.0176   2.5293   2.5979   4.4728

          k = 0.0625 0.3248 0.0000 ( 37734 PWs)   bands (ev):

   -61.8846 -61.8764 -48.3054 -48.3048 -48.3026 -48.3021 -48.2959 -48.2932
   -48.2919 -48.2892 -48.2644 -48.2638 -48.2596 -48.2591 -48.2566 -48.2561
   -48.2470 -48.2464 -48.2446 -48.2383 -48.2373 -48.2258 -36.0696 -36.0585
   -35.9824 -35.9780 -35.9463 -35.9353 -14.3119 -14.2389 -13.9730 -13.8946
    -5.6257  -5.3725  -5.0411  -4.8729  -4.7991  -4.6933  -3.4826  -3.4516
    -2.8049  -2.6645  -2.2947  -2.2692  -1.4831  -1.3833  -0.0498   0.1595
     0.6337   0.7095   1.8594   2.1563   2.6345   2.7417   4.9879

          k = 0.0625 0.3969 0.0000 ( 37770 PWs)   bands (ev):

   -61.8801 -61.8719 -48.3054 -48.3047 -48.3018 -48.3013 -48.2958 -48.2924
   -48.2918 -48.2884 -48.2647 -48.2639 -48.2599 -48.2592 -48.2569 -48.2562
   -48.2472 -48.2465 -48.2442 -48.2379 -48.2369 -48.2254 -36.1164 -36.1052
   -35.9719 -35.9676 -35.9586 -35.9476 -13.9891 -13.9275 -13.7220 -13.6569
    -5.8580  -5.8185  -5.5827  -5.4220  -4.6836  -4.4633  -3.7377  -3.6860
    -3.0514  -2.9426  -2.5199  -2.4795  -1.3937  -1.3461   0.1590   0.3271
     0.7875   0.8631   2.1491   2.3449   2.7699   3.0082   5.2338

          k = 0.0625 0.4691 0.0000 ( 37798 PWs)   bands (ev):

   -61.8767 -61.8685 -48.3054 -48.3046 -48.3012 -48.3007 -48.2958 -48.2918
   -48.2917 -48.2878 -48.2650 -48.2640 -48.2601 -48.2593 -48.2571 -48.2562
   -48.2474 -48.2466 -48.2438 -48.2376 -48.2366 -48.2250 -36.1519 -36.1408
   -35.9684 -35.9635 -35.9598 -35.9568 -13.7806 -13.7353 -13.4313 -13.3798
    -6.5071  -6.4600  -5.6951  -5.5320  -4.6267  -4.5151  -3.8418  -3.7782
    -3.1921  -3.0331  -2.6224  -2.5907  -1.3391  -1.3255   0.4348   0.5310
     0.9604   1.0458   2.4044   2.5120   2.9532   3.2626   4.8581

          k = 0.0625 0.5413 0.0000 ( 37791 PWs)   bands (ev):

   -61.8748 -61.8666 -48.3054 -48.3046 -48.3008 -48.3004 -48.2958 -48.2918
   -48.2914 -48.2874 -48.2651 -48.2641 -48.2602 -48.2593 -48.2572 -48.2563
   -48.2475 -48.2467 -48.2437 -48.2374 -48.2364 -48.2249 -36.1710 -36.1599
   -35.9733 -35.9623 -35.9593 -35.9550 -13.6795 -13.6472 -13.2298 -13.1924
    -6.8915  -6.8498  -5.6446  -5.5511  -4.8345  -4.7136  -3.8359  -3.8161
    -3.0961  -2.9224  -2.6846  -2.6737  -1.3429  -1.3250   0.6492   0.6826
     1.0877   1.1652   2.4977   2.6213   3.1751   3.4192   4.4547

          k = 0.1250 0.2165 0.0000 ( 37731 PWs)   bands (ev):

   -61.8902 -61.8819 -48.3053 -48.3048 -48.3037 -48.3032 -48.2959 -48.2942
   -48.2919 -48.2903 -48.2641 -48.2637 -48.2593 -48.2590 -48.2563 -48.2559
   -48.2467 -48.2463 -48.2451 -48.2388 -48.2378 -48.2263 -36.0088 -35.9978
   -35.9955 -35.9911 -35.9334 -35.9225 -14.7096 -14.6303 -14.2012 -14.1083
    -5.8270  -5.4534  -5.0254  -4.7776  -3.7132  -3.6867  -3.1032  -2.9338
    -2.8787  -2.8540  -2.0153  -1.8721  -1.4198  -1.1766   0.0204   0.0708
     0.2532   0.4698   2.0952   2.1538   2.2056   2.3613   4.4098

          k = 0.1250 0.2887 0.0000 ( 37723 PWs)   bands (ev):

   -61.8857 -61.8774 -48.3052 -48.3047 -48.3030 -48.3024 -48.2957 -48.2935
   -48.2918 -48.2895 -48.2644 -48.2638 -48.2596 -48.2591 -48.2566 -48.2560
   -48.2469 -48.2464 -48.2447 -48.2384 -48.2374 -48.2259 -36.0524 -36.0413
   -35.9851 -35.9808 -35.9494 -35.9385 -14.3856 -14.3105 -14.0267 -13.9455
    -5.5250  -5.2163  -5.1517  -4.8942  -4.4829  -4.4540  -3.5069  -3.4277
    -2.9742  -2.9407  -2.2453  -2.1773  -1.2916  -1.1006  -0.2320  -0.0712
     0.5434   0.7243   1.8631   1.8721   2.4166   2.6925   4.8814

          k = 0.1250 0.3608 0.0000 ( 37761 PWs)   bands (ev):

   -61.8812 -61.8729 -48.3051 -48.3045 -48.3022 -48.3017 -48.2956 -48.2928
   -48.2916 -48.2888 -48.2646 -48.2639 -48.2598 -48.2592 -48.2568 -48.2562
   -48.2472 -48.2466 -48.2443 -48.2380 -48.2370 -48.2255 -36.0953 -36.0842
   -35.9753 -35.9706 -35.9651 -35.9545 -14.0419 -13.9749 -13.8172 -13.7499
    -5.5986  -5.4360  -5.2858  -5.2519  -4.8109  -4.5281  -3.8833  -3.8215
    -3.0805  -3.0365  -2.6632  -2.6167  -1.1408  -1.0085  -0.2164  -0.0182
     0.8416   0.9545   1.7528   1.8252   2.6959   3.0218   5.4021

          k = 0.1250 0.4330 0.0000 ( 37768 PWs)   bands (ev):

   -61.8774 -61.8691 -48.3050 -48.3043 -48.3016 -48.3011 -48.2955 -48.2922
   -48.2915 -48.2882 -48.2649 -48.2641 -48.2600 -48.2593 -48.2570 -48.2563
   -48.2474 -48.2467 -48.2439 -48.2377 -48.2367 -48.2251 -36.1313 -36.1202
   -35.9805 -35.9698 -35.9650 -35.9605 -13.7817 -13.7298 -13.5494 -13.4946
    -6.0963  -6.0556  -5.6293  -5.4640  -4.4960  -4.3543  -4.1277  -4.0142
    -3.1963  -3.1477  -3.0072  -2.9627  -1.0819  -1.0050   0.0321   0.2061
     1.0508   1.1105   1.8396   1.9470   2.9537   3.2610   5.4156

          k = 0.1250 0.5052 0.0000 ( 37794 PWs)   bands (ev):

   -61.8748 -61.8666 -48.3050 -48.3042 -48.3012 -48.3007 -48.2954 -48.2918
   -48.2914 -48.2878 -48.2650 -48.2641 -48.2601 -48.2594 -48.2572 -48.2563
   -48.2475 -48.2467 -48.2437 -48.2374 -48.2364 -48.2249 -36.1552 -36.1441
   -35.9896 -35.9786 -35.9594 -35.9551 -13.6392 -13.6032 -13.2949 -13.2545
    -6.5997  -6.5576  -5.6358  -5.5217  -4.6396  -4.5297  -4.0827  -3.9937
    -3.2803  -3.2290  -3.0947  -3.0072  -1.1265  -1.0733   0.3953   0.5092
     1.1065   1.1484   2.0015   2.1031   3.1400   3.3641   5.0630

          k = 0.1250 0.5774 0.0000 ( 37780 PWs)   bands (ev):

   -61.8739 -61.8657 -48.3050 -48.3042 -48.3010 -48.3005 -48.2954 -48.2916
   -48.2913 -48.2876 -48.2651 -48.2642 -48.2602 -48.2594 -48.2572 -48.2564
   -48.2475 -48.2467 -48.2436 -48.2373 -48.2363 -48.2248 -36.1636 -36.1524
   -35.9928 -35.9818 -35.9573 -35.9530 -13.5910 -13.5627 -13.1914 -13.1601
    -6.7827  -6.7419  -5.5998  -5.5436  -4.7558  -4.6360  -4.0622  -4.0074
    -3.3088  -3.2581  -3.0521  -2.9681  -1.1631  -1.1135   0.6405   0.6641
     1.0481   1.1079   2.0953   2.1662   3.2069   3.3966   4.8153

          k = 0.1875 0.3248 0.0000 ( 37725 PWs)   bands (ev):

   -61.8816 -61.8733 -48.3050 -48.3043 -48.3024 -48.3019 -48.2955 -48.2930
   -48.2915 -48.2890 -48.2646 -48.2639 -48.2598 -48.2593 -48.2568 -48.2562
   -48.2471 -48.2466 -48.2443 -48.2380 -48.2370 -48.2255 -36.0857 -36.0747
   -35.9774 -35.9721 -35.9687 -35.9587 -14.0591 -13.9900 -13.8514 -13.7836
    -5.4967  -5.2805  -5.1150  -5.1017  -4.8861  -4.6041  -3.8925  -3.8176
    -3.3529  -3.3256  -2.5309  -2.5144  -1.0042  -0.8255  -0.3856  -0.1894
     0.8268   0.9764   1.5905   1.6054   2.6774   3.0233   5.3807

          k = 0.1875 0.3969 0.0000 ( 37753 PWs)   bands (ev):

   -61.8778 -61.8695 -48.3047 -48.3040 -48.3020 -48.3015 -48.2952 -48.2925
   -48.2912 -48.2885 -48.2648 -48.2641 -48.2599 -48.2594 -48.2570 -48.2563
   -48.2473 -48.2467 -48.2439 -48.2377 -48.2367 -48.2252 -36.1145 -36.1034
   -35.9928 -35.9819 -35.9659 -35.9614 -13.7523 -13.6945 -13.6435 -13.5908
    -5.7225  -5.7017  -5.5415  -5.3902  -4.5130  -4.2822  -4.2280  -4.1331
    -3.6858  -3.6446  -2.9464  -2.8940  -0.7781  -0.6524  -0.3165  -0.1303
     1.0643   1.1524   1.4913   1.5573   2.9637   3.2669   5.7941

          k = 0.1875 0.4691 0.0000 ( 37759 PWs)   bands (ev):

   -61.8748 -61.8666 -48.3045 -48.3037 -48.3016 -48.3011 -48.2950 -48.2922
   -48.2909 -48.2882 -48.2649 -48.2642 -48.2601 -48.2594 -48.2571 -48.2564
   -48.2474 -48.2468 -48.2437 -48.2374 -48.2364 -48.2249 -36.1354 -36.1243
   -36.0099 -35.9989 -35.9594 -35.9551 -13.5764 -13.5363 -13.3815 -13.3396
    -6.2084  -6.1749  -5.5879  -5.4775  -4.5001  -4.4060  -4.1988  -4.0510
    -3.9243  -3.8536  -3.1965  -3.1770  -0.8027  -0.7118   0.0355   0.1685
     1.1274   1.1637   1.6050   1.7347   3.1500   3.3285   5.6353

          k = 0.1875 0.5413 0.0000 ( 37793 PWs)   bands (ev):

   -61.8733 -61.8650 -48.3044 -48.3036 -48.3014 -48.3010 -48.2948 -48.2920
   -48.2908 -48.2880 -48.2650 -48.2643 -48.2602 -48.2595 -48.2572 -48.2565
   -48.2475 -48.2468 -48.2435 -48.2373 -48.2363 -48.2247 -36.1464 -36.1352
   -36.0195 -36.0085 -35.9558 -35.9515 -13.4903 -13.4634 -13.2065 -13.1781
    -6.4888  -6.4485  -5.5884  -5.5318  -4.5987  -4.4836  -4.2166  -4.1327
    -4.0023  -3.9268  -3.2198  -3.1992  -0.8837  -0.8006   0.4330   0.4948
     0.9802   1.0160   1.8236   1.9118   3.1554   3.2833   5.3959

          k = 0.2500 0.4330 0.0000 ( 37711 PWs)   bands (ev):

   -61.8748 -61.8666 -48.3043 -48.3035 -48.3018 -48.3013 -48.2947 -48.2924
   -48.2907 -48.2884 -48.2649 -48.2642 -48.2601 -48.2595 -48.2571 -48.2564
   -48.2474 -48.2468 -48.2437 -48.2374 -48.2364 -48.2249 -36.1250 -36.1139
   -36.0205 -36.0095 -35.9594 -35.9551 -13.5207 -13.4780 -13.4456 -13.4065
    -5.9830  -5.9623  -5.5478  -5.4496  -4.5001  -4.3920  -4.2623  -4.2452
    -4.1233  -3.9473  -3.3295  -3.2410  -0.4702  -0.3459  -0.3069  -0.2010
     1.1075   1.1681   1.4784   1.6271   3.1632   3.3151   5.8874

          k = 0.2500 0.5052 0.0000 ( 37776 PWs)   bands (ev):

   -61.8729 -61.8646 -48.3039 -48.3031 -48.3019 -48.3014 -48.2943 -48.2924
   -48.2903 -48.2885 -48.2649 -48.2643 -48.2602 -48.2595 -48.2571 -48.2565
   -48.2475 -48.2469 -48.2435 -48.2373 -48.2363 -48.2247 -36.1275 -36.1164
   -36.0436 -36.0325 -35.9550 -35.9507 -13.3973 -13.3700 -13.2579 -13.2306
    -6.1370  -6.1023  -5.5714  -5.5237  -4.7044  -4.6717  -4.4576  -4.3511
    -4.0242  -3.9324  -3.5516  -3.4815  -0.5024  -0.4018   0.0238   0.0922
     0.9515   0.9698   1.7217   1.9397   3.1067   3.1830   5.6799

          k = 0.2500 0.5774 0.0000 ( 37791 PWs)   bands (ev):

   -61.8722 -61.8640 -48.3037 -48.3029 -48.3019 -48.3014 -48.2941 -48.2925
   -48.2901 -48.2885 -48.2649 -48.2644 -48.2602 -48.2596 -48.2572 -48.2566
   -48.2475 -48.2469 -48.2434 -48.2372 -48.2362 -48.2247 -36.1270 -36.1158
   -36.0531 -36.0420 -35.9534 -35.9491 -13.3537 -13.3344 -13.1844 -13.1658
    -6.1830  -6.1414  -5.5934  -5.5609  -4.8495  -4.8236  -4.3332  -4.2163
    -4.1904  -4.1079  -3.5458  -3.4923  -0.5463  -0.4526   0.2749   0.3502
     0.7401   0.7697   1.9609   2.1028   2.9851   3.0461   5.6018

          k = 0.3125 0.5413 0.0000 ( 37789 PWs)   bands (ev):

   -61.8718 -61.8636 -48.3033 -48.3025 -48.3022 -48.3018 -48.2937 -48.2929
   -48.2896 -48.2889 -48.2649 -48.2644 -48.2602 -48.2596 -48.2571 -48.2566
   -48.2475 -48.2469 -48.2434 -48.2372 -48.2362 -48.2246 -36.1095 -36.0984
   -36.0756 -36.0645 -35.9526 -35.9483 -13.2724 -13.2571 -13.2096 -13.1948
    -5.8830  -5.8356  -5.5941  -5.5762  -5.2932  -5.2528  -4.3210  -4.1895
    -3.9597  -3.8985  -3.8878  -3.7828  -0.2263  -0.1180  -0.0140   0.0772
     0.6516   0.6610   2.1231   2.3583   2.7307   2.9160   5.5194

     the Fermi energy is    -0.3120 ev

!    total energy              =   -2326.93724610 Ry
     total all-electron energy =    -35628.685075 Ry
     estimated scf accuracy    <          6.6E-09 Ry
     smearing contrib. (-TS)   =       0.00097467 Ry
     internal energy E=F+TS    =   -2326.93822077 Ry

     The total energy is F=E-TS. E is the sum of the following terms:
     one-electron contribution =  -28653.35142332 Ry
     hartree contribution      =   14314.88491536 Ry
     xc contribution           =    -152.44728991 Ry
     ewald contribution        =   13174.49002401 Ry
     one-center paw contrib.   =   -1010.51444691 Ry

     convergence has been achieved in  24 iterations

     Writing all to output data dir ./tmp/cleave_002/mose2_cleave_002.save/ :
     XML data file, charge density, pseudopotentials, collected wavefunctions

     init_run     :     11.75s CPU     11.99s WALL (       1 calls)
     electrons    :    448.63s CPU    459.89s WALL (       1 calls)

     Called by init_run:
     wfcinit      :      5.39s CPU      5.45s WALL (       1 calls)
     potinit      :      5.73s CPU      5.78s WALL (       1 calls)
     hinit0       :      0.05s CPU      0.06s WALL (       1 calls)

     Called by electrons:
     c_bands      :    371.31s CPU    377.37s WALL (      25 calls)
     sum_band     :     50.76s CPU     53.21s WALL (      25 calls)
     v_of_rho     :     15.21s CPU     16.05s WALL (      25 calls)
     newd         :      9.61s CPU     11.54s WALL (      25 calls)
     PAW_pot      :      1.55s CPU      1.60s WALL (      25 calls)
     mix_rho      :      6.04s CPU      6.12s WALL (      25 calls)
     vdW_kernel   :      5.25s CPU      5.26s WALL (       1 calls)

     Called by c_bands:
     init_us_2    :      2.46s CPU      2.47s WALL (    1530 calls)
     cegterg      :    360.82s CPU    366.60s WALL (     750 calls)

     Called by *egterg:
     cdiaghg      :     10.20s CPU     10.23s WALL (    3774 calls)
     h_psi        :    149.08s CPU    150.73s WALL (    3834 calls)
     s_psi        :     23.97s CPU     24.01s WALL (    3834 calls)
     g_psi        :      0.35s CPU      0.35s WALL (    3054 calls)

     Called by h_psi:
     h_psi:calbec :     47.55s CPU     48.43s WALL (    3834 calls)
     vloc_psi     :     72.92s CPU     73.63s WALL (    3834 calls)
                                        0.00s GPU  (    3834 calls)
     add_vuspsi   :     28.19s CPU     28.26s WALL (    3834 calls)

     General routines
     calbec       :     68.20s CPU     69.49s WALL (    4584 calls)
     fft          :      6.93s CPU      7.13s WALL (    1574 calls)
     ffts         :      2.26s CPU      2.28s WALL (    2879 calls)
     fftw         :     84.56s CPU     85.40s WALL (  223122 calls)
     interpolate  :      0.11s CPU      0.12s WALL (      25 calls)

     Parallel routines

     PWSCF        :   7m40.95s CPU   7m52.62s WALL


   This run was terminated on:   9: 9:15  20Jun2026            

=------------------------------------------------------------------------------=
   JOB DONE.
=------------------------------------------------------------------------------=
Note: The following floating-point exceptions are signalling: IEEE_UNDERFLOW_FLAG IEEE_DENORMAL
Note: The following floating-point exceptions are signalling: IEEE_UNDERFLOW_FLAG IEEE_DENORMAL
Note: The following floating-point exceptions are signalling: IEEE_UNDERFLOW_FLAG IEEE_DENORMAL
Note: The following floating-point exceptions are signalling: IEEE_UNDERFLOW_FLAG IEEE_DENORMAL
Note: The following floating-point exceptions are signalling: IEEE_UNDERFLOW_FLAG IEEE_DENORMAL
Note: The following floating-point exceptions are signalling: IEEE_UNDERFLOW_FLAG IEEE_DENORMAL
Note: The following floating-point exceptions are signalling: IEEE_UNDERFLOW_FLAG IEEE_DENORMAL
Note: The following floating-point exceptions are signalling: IEEE_UNDERFLOW_FLAG IEEE_DENORMAL
Note: The following floating-point exceptions are signalling: IEEE_UNDERFLOW_FLAG IEEE_DENORMAL
Note: The following floating-point exceptions are signalling: IEEE_UNDERFLOW_FLAG IEEE_DENORMAL
Note: The following floating-point exceptions are signalling: IEEE_UNDERFLOW_FLAG IEEE_DENORMAL
Note: The following floating-point exceptions are signalling: IEEE_UNDERFLOW_FLAG IEEE_DENORMAL
Note: The following floating-point exceptions are signalling: IEEE_UNDERFLOW_FLAG IEEE_DENORMAL
Note: The following floating-point exceptions are signalling: IEEE_UNDERFLOW_FLAG IEEE_DENORMAL
Note: The following floating-point exceptions are signalling: IEEE_UNDERFLOW_FLAG IEEE_DENORMAL
Note: The following floating-point exceptions are signalling: IEEE_UNDERFLOW_FLAG IEEE_DENORMAL
Note: The following floating-point exceptions are signalling: IEEE_UNDERFLOW_FLAG IEEE_DENORMAL
Note: The following floating-point exceptions are signalling: IEEE_UNDERFLOW_FLAG IEEE_DENORMAL
Note: The following floating-point exceptions are signalling: IEEE_UNDERFLOW_FLAG IEEE_DENORMAL
Note: The following floating-point exceptions are signalling: IEEE_UNDERFLOW_FLAG IEEE_DENORMAL
Note: The following floating-point exceptions are signalling: IEEE_UNDERFLOW_FLAG IEEE_DENORMAL
Note: The following floating-point exceptions are signalling: IEEE_UNDERFLOW_FLAG IEEE_DENORMAL
Note: The following floating-point exceptions are signalling: IEEE_UNDERFLOW_FLAG IEEE_DENORMAL
Note: The following floating-point exceptions are signalling: IEEE_UNDERFLOW_FLAG IEEE_DENORMAL
