
     Program PWSCF v.7.5 starts on 20Jun2026 at 11:52: 3 

     This program is part of the open-source Quantum ESPRESSO suite
     for quantum simulation of materials; please cite
         "P. Giannozzi et al., J. Phys.:Condens. Matter 21 395502 (2009);
         "P. Giannozzi et al., J. Phys.:Condens. Matter 29 465901 (2017);
         "P. Giannozzi et al., J. Chem. Phys. 152 154105 (2020);
          URL http://www.quantum-espresso.org", 
     in publications or presentations arising from this work. More details at
     http://www.quantum-espresso.org/quote

     Parallel version (MPI), running on    24 processors

     MPI processes distributed on     1 nodes
     11962 MiB available memory on the printing compute node when the environment starts

     Waiting for input...
     Reading input from standard input

     Current dimensions of program PWSCF are:
     Max number of different atomic species (ntypx) = 10
     Max number of k-points (npk) =  40000
     Max angular momentum in pseudopotentials (lmaxx) =  4
     file Mo.pbe-spn-kjpaw_psl.1.0.0.UPF: wavefunction(s)  4S 4D renormalized
     file Se.pbe-dn-kjpaw_psl.1.0.0.UPF: wavefunction(s)  4S 4P 3D renormalized

     IMPORTANT: XC functional enforced from input :
     Exchange-correlation= VDW-DF2-B86R
                           (   1   4  26   0   2   0   0)
     Any further DFT definition will be discarded
     Please, verify this is what you really want


     R & G space division:  proc/nbgrp/npool/nimage =      24
     Subspace diagonalization in iterative solution of the eigenvalue problem:
     a serial algorithm will be used


     Parallelization info
     --------------------
     sticks:   dense  smooth     PW     G-vecs:    dense   smooth      PW
     Min          69      35     10                35537    12585    1924
     Max          70      36     11                35620    12648    1981
     Sum        1675     847    241               853823   302525   46513

     Using Slab Decomposition



     bravais-lattice index     =            4
     lattice parameter (alat)  =       6.1794  a.u.
     unit-cell volume          =    3124.5879 (a.u.)^3
     number of atoms/cell      =            6
     number of atomic types    =            2
     number of electrons       =        92.00
     number of Kohn-Sham states=           55
     kinetic-energy cutoff     =      80.0000  Ry
     charge density cutoff     =     640.0000  Ry
     scf convergence threshold =      1.0E-08
     mixing beta               =       0.3000
     number of iterations used =            8  local-TF  mixing
     Exchange-correlation= VDW-DF2-B86R
                           (   1   4  26   0   2   0   0)

     celldm(1)=   6.179404  celldm(2)=   0.000000  celldm(3)=  15.290520
     celldm(4)=   0.000000  celldm(5)=   0.000000  celldm(6)=   0.000000

     crystal axes: (cart. coord. in units of alat)
               a(1) = (   1.000000   0.000000   0.000000 )  
               a(2) = (  -0.500000   0.866025   0.000000 )  
               a(3) = (   0.000000   0.000000  15.290520 )  

     reciprocal axes: (cart. coord. in units 2 pi/alat)
               b(1) = (  1.000000  0.577350 -0.000000 )  
               b(2) = (  0.000000  1.154701  0.000000 )  
               b(3) = (  0.000000 -0.000000  0.065400 )  


     PseudoPot. # 1 for Mo read from file:
     ./pseudo/Mo.pbe-spn-kjpaw_psl.1.0.0.UPF
     MD5 check sum: 4396e0c640fcce5c25f020efccf1ab12
     Pseudo is Projector augmented-wave + core cor, Zval = 14.0
     Generated using &quot;atomic&quot; code by A. Dal Corso  v.6.3
     Shape of augmentation charge: PSQ
     Using radial grid of 1229 points,  6 beta functions with: 
                l(1) =   0
                l(2) =   0
                l(3) =   1
                l(4) =   1
                l(5) =   2
                l(6) =   2
     Q(r) pseudized with 0 coefficients 


     PseudoPot. # 2 for Se read from file:
     ./pseudo/Se.pbe-dn-kjpaw_psl.1.0.0.UPF
     MD5 check sum: ac240dd2bae32a30e0bf3a38df9c8785
     Pseudo is Projector augmented-wave + core cor, Zval = 16.0
     Generated using &quot;atomic&quot; code by A. Dal Corso  v.6.3
     Shape of augmentation charge: PSQ
     Using radial grid of 1211 points,  6 beta functions with: 
                l(1) =   0
                l(2) =   0
                l(3) =   1
                l(4) =   1
                l(5) =   2
                l(6) =   2
     Q(r) pseudized with 0 coefficients 


     atomic species   valence    mass     pseudopotential
     Mo               14.00    95.96000     Mo( 1.00)
     Se               16.00    78.96000     Se( 1.00)

      6 Sym. Ops. (no inversion) found



   Cartesian axes

     site n.     atom                  positions (alat units)
         1        Se     tau(   1) = (  -0.0000005   0.5773506   6.1238532  )
         2        Mo     tau(   2) = (   0.0000000   0.0000000   6.6502752  )
         3        Se     tau(   3) = (   0.5000005   0.2886748   7.1775994  )
         4        Se     tau(   4) = (  -0.0000005   0.5773506   9.5802294  )
         5        Mo     tau(   5) = (   0.5000005   0.2886748  10.1074159  )
         6        Se     tau(   6) = (   0.0000000   0.0000000  10.6345566  )

     number of k points=    30  Methfessel-Paxton smearing, width (Ry)=  0.0200
                       cart. coord. in units 2pi/alat
        k(    1) = (   0.0000000   0.0000000   0.0000000), wk =   0.0078125
        k(    2) = (   0.0000000   0.0721688   0.0000000), wk =   0.0468750
        k(    3) = (   0.0000000   0.1443376   0.0000000), wk =   0.0468750
        k(    4) = (   0.0000000   0.2165064   0.0000000), wk =   0.0468750
        k(    5) = (   0.0000000   0.2886751   0.0000000), wk =   0.0468750
        k(    6) = (   0.0000000   0.3608439   0.0000000), wk =   0.0468750
        k(    7) = (   0.0000000   0.4330127   0.0000000), wk =   0.0468750
        k(    8) = (   0.0000000   0.5051815   0.0000000), wk =   0.0468750
        k(    9) = (   0.0000000  -0.5773503   0.0000000), wk =   0.0234375
        k(   10) = (   0.0625000   0.1082532   0.0000000), wk =   0.0468750
        k(   11) = (   0.0625000   0.1804220   0.0000000), wk =   0.0937500
        k(   12) = (   0.0625000   0.2525907   0.0000000), wk =   0.0937500
        k(   13) = (   0.0625000   0.3247595   0.0000000), wk =   0.0937500
        k(   14) = (   0.0625000   0.3969283   0.0000000), wk =   0.0937500
        k(   15) = (   0.0625000   0.4690971   0.0000000), wk =   0.0937500
        k(   16) = (   0.0625000   0.5412659   0.0000000), wk =   0.0937500
        k(   17) = (   0.1250000   0.2165064   0.0000000), wk =   0.0468750
        k(   18) = (   0.1250000   0.2886751   0.0000000), wk =   0.0937500
        k(   19) = (   0.1250000   0.3608439   0.0000000), wk =   0.0937500
        k(   20) = (   0.1250000   0.4330127   0.0000000), wk =   0.0937500
        k(   21) = (   0.1250000   0.5051815   0.0000000), wk =   0.0937500
        k(   22) = (   0.1250000   0.5773503   0.0000000), wk =   0.0468750
        k(   23) = (   0.1875000   0.3247595   0.0000000), wk =   0.0468750
        k(   24) = (   0.1875000   0.3969283   0.0000000), wk =   0.0937500
        k(   25) = (   0.1875000   0.4690971   0.0000000), wk =   0.0937500
        k(   26) = (   0.1875000   0.5412659   0.0000000), wk =   0.0937500
        k(   27) = (   0.2500000   0.4330127   0.0000000), wk =   0.0468750
        k(   28) = (   0.2500000   0.5051815   0.0000000), wk =   0.0937500
        k(   29) = (   0.2500000   0.5773503   0.0000000), wk =   0.0468750
        k(   30) = (   0.3125000   0.5412659   0.0000000), wk =   0.0468750

     Dense  grid:   853823 G-vectors     FFT dimensions: (  50,  50, 768)

     Smooth grid:   302525 G-vectors     FFT dimensions: (  36,  36, 540)

     Estimated max dynamical RAM per process >     171.88 MB

     Estimated total dynamical RAM >       4.03 GB

     Initial potential from superposition of free atoms

     starting charge      91.9979, renormalised to      92.0000

     negative rho (up, down):  1.645E-04 0.000E+00


     %%%%%%%%%%%%%%%%%%%%%%%%%%%%%%%%%%%%%%%%%%%%%%%%%%%%%%%%%%%%%%%%%%%%%%%%
     %                                                                      %
     % You are using vdW-DF, which was implemented by the Thonhauser group. %
     % Please cite the following two papers that made this development      %
     % possible and the two reviews that describe the various versions:     %
     %                                                                      %
     %   T. Thonhauser et al., PRL 115, 136402 (2015).                      %
     %   T. Thonhauser et al., PRB 76, 125112 (2007).                       %
     %   K. Berland et al., Rep. Prog. Phys. 78, 066501 (2015).             %
     %   D.C. Langreth et al., J. Phys.: Condens. Matter 21, 084203 (2009). %
     %                                                                      %
     % If you are calculating stress with vdW-DF, please also cite:         %
     %                                                                      %
     %   R. Sabatini et al., J. Phys.: Condens. Matter 24, 424209 (2012).   %
     %                                                                      %
     %%%%%%%%%%%%%%%%%%%%%%%%%%%%%%%%%%%%%%%%%%%%%%%%%%%%%%%%%%%%%%%%%%%%%%%%

     %%%%%%%%%%%%%%%%%%%%%%%%%%%%%%%%%%%%%%%%%%%%%%%%%%%%%%%%%%%%%%%%%%%%%%%%
     %                                                                      %
     %  vdW-DF NEWS:                                                        %
     %                                                                      %
     %  * vdW-DF3 is now available. DOI: 10.1021/acs.jctc.0c00471           %
     %    use with input_dft = 'vdW-DF3-opt1' or 'vdW-DF3-opt2'             %
     %                                                                      %
     %  * Unscreened and range-separated hybrid vdW-DF-cx functionals       %
     %    DOI: 10.1063/1.4986522 and 10.1088/1361-648X/ac2ad2               %
     %    use with input_dft = 'vdW-DF-cx0'    and 'vdW-DF-ahcx'            %
     %  * Unscreened and range-separated hybrid vdW-DF2-b86r functionals    %
     %    DOI: 10.1063/1.4986522 and DOI: 10.1103/PhysRevX.12.041003        %
     %    use with input_dft = 'vdW-DF2-br0' and 'vdW-DF2-ahbr'             %
     %                                                                      %
     %%%%%%%%%%%%%%%%%%%%%%%%%%%%%%%%%%%%%%%%%%%%%%%%%%%%%%%%%%%%%%%%%%%%%%%%


     Starting wfcs are   56 randomized atomic wfcs
     Checking if some PAW data can be deallocated... 

     total cpu time spent up to now is       12.2 secs

     per-process dynamical memory:    79.7 Mb

     Self-consistent Calculation

     iteration #  1     ecut=    80.00 Ry     beta= 0.30
     Davidson diagonalization with overlap
     ethr =  1.00E-02,  avg # of iterations =  4.4

     Threshold (ethr) on eigenvalues was too large:
     Diagonalizing with lowered threshold

     Davidson diagonalization with overlap
     ethr =  4.49E-04,  avg # of iterations =  2.0

     negative rho (up, down):  3.804E-05 0.000E+00

     total cpu time spent up to now is       50.4 secs

     total energy              =   -2326.96299661 Ry
     estimated scf accuracy    <       0.46044475 Ry

     iteration #  2     ecut=    80.00 Ry     beta= 0.30
     Davidson diagonalization with overlap
     ethr =  5.00E-04,  avg # of iterations =  1.7

     negative rho (up, down):  1.256E-05 0.000E+00

     total cpu time spent up to now is       66.7 secs

     total energy              =   -2326.91635979 Ry
     estimated scf accuracy    <       0.24369626 Ry

     iteration #  3     ecut=    80.00 Ry     beta= 0.30
     Davidson diagonalization with overlap
     ethr =  2.65E-04,  avg # of iterations =  4.8

     negative rho (up, down):  5.069E-06 0.000E+00

     total cpu time spent up to now is       87.3 secs

     total energy              =   -2326.92322724 Ry
     estimated scf accuracy    <       0.03199188 Ry

     iteration #  4     ecut=    80.00 Ry     beta= 0.30
     Davidson diagonalization with overlap
     ethr =  3.48E-05,  avg # of iterations =  6.8

     negative rho (up, down):  2.564E-06 0.000E+00

     total cpu time spent up to now is      108.6 secs

     total energy              =   -2326.92333172 Ry
     estimated scf accuracy    <       0.01024902 Ry

     iteration #  5     ecut=    80.00 Ry     beta= 0.30
     Davidson diagonalization with overlap
     ethr =  1.11E-05,  avg # of iterations =  3.9

     negative rho (up, down):  8.950E-07 0.000E+00

     total cpu time spent up to now is      129.0 secs

     total energy              =   -2326.92238175 Ry
     estimated scf accuracy    <       0.00422490 Ry

     iteration #  6     ecut=    80.00 Ry     beta= 0.30
     Davidson diagonalization with overlap
     c_bands:  1 eigenvalues not converged
     c_bands:  1 eigenvalues not converged
     c_bands:  1 eigenvalues not converged
     ethr =  4.59E-06,  avg # of iterations =  7.0

     negative rho (up, down):  4.260E-07 0.000E+00

     total cpu time spent up to now is      151.8 secs

     total energy              =   -2326.92242475 Ry
     estimated scf accuracy    <       0.00141966 Ry

     iteration #  7     ecut=    80.00 Ry     beta= 0.30
     Davidson diagonalization with overlap
     ethr =  1.54E-06,  avg # of iterations =  3.2

     negative rho (up, down):  3.138E-07 0.000E+00

     total cpu time spent up to now is      170.4 secs

     total energy              =   -2326.92226892 Ry
     estimated scf accuracy    <       0.00124077 Ry

     iteration #  8     ecut=    80.00 Ry     beta= 0.30
     Davidson diagonalization with overlap
     ethr =  1.35E-06,  avg # of iterations =  2.9

     negative rho (up, down):  1.569E-07 0.000E+00

     total cpu time spent up to now is      188.8 secs

     total energy              =   -2326.92223751 Ry
     estimated scf accuracy    <       0.00083992 Ry

     iteration #  9     ecut=    80.00 Ry     beta= 0.30
     Davidson diagonalization with overlap
     ethr =  9.13E-07,  avg # of iterations =  3.6

     negative rho (up, down):  1.740E-03 0.000E+00

     total cpu time spent up to now is      206.8 secs

     total energy              =   -2326.92225053 Ry
     estimated scf accuracy    <       0.00065430 Ry

     iteration # 10     ecut=    80.00 Ry     beta= 0.30
     Davidson diagonalization with overlap
     ethr =  7.11E-07,  avg # of iterations =  4.8

     negative rho (up, down):  2.994E-03 0.000E+00

     total cpu time spent up to now is      224.7 secs

     total energy              =   -2326.92218685 Ry
     estimated scf accuracy    <       0.00052356 Ry

     iteration # 11     ecut=    80.00 Ry     beta= 0.30
     Davidson diagonalization with overlap
     ethr =  5.69E-07,  avg # of iterations =  2.8

     negative rho (up, down):  7.191E-03 0.000E+00

     total cpu time spent up to now is      242.4 secs

     total energy              =   -2326.92206531 Ry
     estimated scf accuracy    <       0.00036130 Ry

     iteration # 12     ecut=    80.00 Ry     beta= 0.30
     Davidson diagonalization with overlap
     ethr =  3.93E-07,  avg # of iterations =  6.6

     negative rho (up, down):  6.185E-03 0.000E+00

     total cpu time spent up to now is      261.9 secs

     total energy              =   -2326.92207878 Ry
     estimated scf accuracy    <       0.00022068 Ry

     iteration # 13     ecut=    80.00 Ry     beta= 0.30
     Davidson diagonalization with overlap
     ethr =  2.40E-07,  avg # of iterations =  2.8

     negative rho (up, down):  3.655E-03 0.000E+00

     total cpu time spent up to now is      279.5 secs

     total energy              =   -2326.92203917 Ry
     estimated scf accuracy    <       0.00013558 Ry

     iteration # 14     ecut=    80.00 Ry     beta= 0.30
     Davidson diagonalization with overlap
     ethr =  1.47E-07,  avg # of iterations =  2.2

     negative rho (up, down):  2.977E-03 0.000E+00

     total cpu time spent up to now is      298.1 secs

     total energy              =   -2326.92206916 Ry
     estimated scf accuracy    <       0.00006116 Ry

     iteration # 15     ecut=    80.00 Ry     beta= 0.30
     Davidson diagonalization with overlap
     ethr =  6.65E-08,  avg # of iterations =  2.8

     negative rho (up, down):  1.165E-03 0.000E+00

     total cpu time spent up to now is      316.0 secs

     total energy              =   -2326.92211774 Ry
     estimated scf accuracy    <       0.00005026 Ry

     iteration # 16     ecut=    80.00 Ry     beta= 0.30
     Davidson diagonalization with overlap
     ethr =  5.46E-08,  avg # of iterations =  5.3

     negative rho (up, down):  8.326E-04 0.000E+00

     total cpu time spent up to now is      335.4 secs

     total energy              =   -2326.92212123 Ry
     estimated scf accuracy    <       0.00002605 Ry

     iteration # 17     ecut=    80.00 Ry     beta= 0.30
     Davidson diagonalization with overlap
     ethr =  2.83E-08,  avg # of iterations =  4.2

     negative rho (up, down):  9.937E-04 0.000E+00

     total cpu time spent up to now is      355.1 secs

     total energy              =   -2326.92212196 Ry
     estimated scf accuracy    <       0.00000807 Ry

     iteration # 18     ecut=    80.00 Ry     beta= 0.30
     Davidson diagonalization with overlap
     ethr =  8.77E-09,  avg # of iterations =  2.0

     negative rho (up, down):  4.735E-04 0.000E+00

     total cpu time spent up to now is      373.2 secs

     total energy              =   -2326.92213064 Ry
     estimated scf accuracy    <       0.00000224 Ry

     iteration # 19     ecut=    80.00 Ry     beta= 0.30
     Davidson diagonalization with overlap
     ethr =  2.44E-09,  avg # of iterations =  2.4

     negative rho (up, down):  2.777E-04 0.000E+00

     total cpu time spent up to now is      392.4 secs

     total energy              =   -2326.92213318 Ry
     estimated scf accuracy    <       0.00000069 Ry

     iteration # 20     ecut=    80.00 Ry     beta= 0.30
     Davidson diagonalization with overlap
     ethr =  7.53E-10,  avg # of iterations =  2.9

     negative rho (up, down):  1.842E-04 0.000E+00

     total cpu time spent up to now is      410.9 secs

     total energy              =   -2326.92213532 Ry
     estimated scf accuracy    <       0.00000026 Ry

     iteration # 21     ecut=    80.00 Ry     beta= 0.30
     Davidson diagonalization with overlap
     ethr =  2.81E-10,  avg # of iterations =  2.5

     negative rho (up, down):  2.102E-04 0.000E+00

     total cpu time spent up to now is      429.9 secs

     total energy              =   -2326.92213520 Ry
     estimated scf accuracy    <       0.00000004 Ry

     iteration # 22     ecut=    80.00 Ry     beta= 0.30
     Davidson diagonalization with overlap
     ethr =  4.13E-11,  avg # of iterations =  2.0

     negative rho (up, down):  2.069E-04 0.000E+00

     total cpu time spent up to now is      449.2 secs

     total energy              =   -2326.92213535 Ry
     estimated scf accuracy    <       0.00000002 Ry

     iteration # 23     ecut=    80.00 Ry     beta= 0.30
     Davidson diagonalization with overlap
     ethr =  1.71E-11,  avg # of iterations =  2.0

     negative rho (up, down):  1.944E-04 0.000E+00

     total cpu time spent up to now is      467.9 secs

     End of self-consistent calculation

          k = 0.0000 0.0000 0.0000 ( 37787 PWs)   bands (ev):

   -61.8963 -61.8954 -48.2913 -48.2913 -48.2908 -48.2908 -48.2901 -48.2901
   -48.2895 -48.2895 -48.2458 -48.2458 -48.2452 -48.2452 -48.2446 -48.2446
   -48.2440 -48.2440 -48.2271 -48.2264 -48.2260 -48.2253 -36.0148 -36.0137
   -35.8994 -35.8994 -35.8981 -35.8981 -15.2943 -15.2908 -14.4760 -14.4746
    -6.4374  -6.4344  -3.3609  -3.3608  -3.3548  -3.3548  -3.3392  -3.3339
    -1.5934  -1.5866  -1.0645  -1.0645  -1.0616  -1.0616   0.2289   0.2289
     0.2317   0.2317   2.9091   2.9474   2.9474   2.9495   2.9496

          k = 0.0000 0.0722 0.0000 ( 37755 PWs)   bands (ev):

   -61.8954 -61.8945 -48.2913 -48.2911 -48.2907 -48.2906 -48.2901 -48.2899
   -48.2894 -48.2893 -48.2458 -48.2458 -48.2452 -48.2452 -48.2447 -48.2446
   -48.2440 -48.2440 -48.2270 -48.2263 -48.2259 -48.2252 -36.0125 -36.0115
   -35.9101 -35.9087 -35.9019 -35.9006 -15.2375 -15.2341 -14.4466 -14.4451
    -6.3597  -6.3566  -3.8336  -3.8294  -3.3289  -3.3228  -2.9345  -2.9304
    -1.6308  -1.6256  -1.2543  -1.2513  -1.2115  -1.2084   0.1205   0.1237
     0.3419   0.3443   2.6106   2.6330   2.8988   2.9008   3.0302

          k = 0.0000 0.1443 0.0000 ( 37697 PWs)   bands (ev):

   -61.8926 -61.8917 -48.2913 -48.2907 -48.2906 -48.2900 -48.2900 -48.2894
   -48.2893 -48.2887 -48.2460 -48.2459 -48.2454 -48.2452 -48.2449 -48.2447
   -48.2442 -48.2440 -48.2268 -48.2260 -48.2256 -48.2249 -36.0061 -36.0051
   -35.9402 -35.9389 -35.9088 -35.9075 -15.0711 -15.0678 -14.3604 -14.3587
    -6.1344  -6.1313  -4.3192  -4.3148  -3.2535  -3.2475  -2.7149  -2.7116
    -2.0777  -2.0751  -1.4990  -1.4956  -1.4578  -1.4538   0.0004   0.0056
     0.5325   0.5343   2.0193   2.0416   2.7990   2.8009   3.2869

          k = 0.0000 0.2165 0.0000 ( 37653 PWs)   bands (ev):

   -61.8885 -61.8876 -48.2912 -48.2907 -48.2900 -48.2898 -48.2894 -48.2892
   -48.2885 -48.2879 -48.2464 -48.2460 -48.2455 -48.2453 -48.2452 -48.2448
   -48.2443 -48.2441 -48.2264 -48.2256 -48.2252 -48.2245 -35.9969 -35.9959
   -35.9846 -35.9833 -35.9192 -35.9179 -14.8082 -14.8049 -14.2240 -14.2221
    -5.7937  -5.7907  -4.7486  -4.7440  -3.2579  -3.2548  -3.2019  -3.1960
    -2.4360  -2.4332  -1.7227  -1.7190  -1.5580  -1.5554  -0.0312  -0.0254
     0.6389   0.6401   1.6567   1.6817   2.7336   2.7354   3.6603

          k = 0.0000 0.2887 0.0000 ( 37721 PWs)   bands (ev):

   -61.8836 -61.8828 -48.2912 -48.2907 -48.2900 -48.2894 -48.2889 -48.2883
   -48.2876 -48.2870 -48.2467 -48.2462 -48.2457 -48.2456 -48.2454 -48.2450
   -48.2445 -48.2442 -48.2259 -48.2252 -48.2248 -48.2241 -36.0377 -36.0363
   -35.9850 -35.9840 -35.9314 -35.9300 -14.4750 -14.4718 -14.0462 -14.0440
    -5.4823  -5.4787  -4.9884  -4.9845  -4.2799  -4.2765  -3.2563  -3.2507
    -2.6210  -2.6194  -1.8102  -1.8089  -1.7663  -1.7623   0.0503   0.0557
     0.6439   0.6450   1.7616   1.7900   2.7348   2.7366   4.1382

          k = 0.0000 0.3608 0.0000 ( 37749 PWs)   bands (ev):

   -61.8788 -61.8779 -48.2913 -48.2906 -48.2900 -48.2893 -48.2880 -48.2874
   -48.2867 -48.2861 -48.2471 -48.2463 -48.2460 -48.2459 -48.2454 -48.2451
   -48.2447 -48.2442 -48.2255 -48.2247 -48.2243 -48.2236 -36.0897 -36.0882
   -35.9737 -35.9727 -35.9435 -35.9422 -14.1267 -14.1235 -13.8267 -13.8243
    -5.5991  -5.5949  -5.2373  -5.2341  -4.7243  -4.7211  -3.4049  -3.3995
    -2.9807  -2.9799  -2.0753  -2.0743  -1.6610  -1.6571   0.3104   0.3147
     0.6208   0.6220   2.1803   2.2092   2.7713   2.7734   4.6941

          k = 0.0000 0.4330 0.0000 ( 37785 PWs)   bands (ev):

   -61.8747 -61.8738 -48.2913 -48.2905 -48.2901 -48.2893 -48.2872 -48.2867
   -48.2860 -48.2854 -48.2475 -48.2464 -48.2463 -48.2461 -48.2455 -48.2452
   -48.2449 -48.2443 -48.2251 -48.2244 -48.2239 -48.2232 -36.1334 -36.1320
   -35.9640 -35.9631 -35.9538 -35.9525 -13.8628 -13.8595 -13.5478 -13.5453
    -6.1995  -6.1957  -5.5771  -5.5740  -4.5345  -4.5320  -3.5640  -3.5588
    -3.2348  -3.2339  -2.2486  -2.2479  -1.5273  -1.5237   0.6353   0.6370
     0.6762   0.6789   2.6987   2.7228   2.8078   2.8102   5.0830

          k = 0.0000 0.5052 0.0000 ( 37822 PWs)   bands (ev):

   -61.8719 -61.8710 -48.2913 -48.2905 -48.2901 -48.2892 -48.2867 -48.2862
   -48.2855 -48.2849 -48.2477 -48.2465 -48.2465 -48.2462 -48.2456 -48.2453
   -48.2450 -48.2444 -48.2249 -48.2241 -48.2237 -48.2230 -36.1625 -36.1610
   -35.9607 -35.9593 -35.9576 -35.9566 -13.7176 -13.7141 -13.2860 -13.2835
    -6.7571  -6.7533  -5.5984  -5.5959  -4.7016  -4.6992  -3.6761  -3.6709
    -3.1147  -3.1133  -2.3767  -2.3761  -1.4401  -1.4368   0.6845   0.6867
     1.0182   1.0195   2.8303   2.8329   3.1518   3.1654   4.6712

          k = 0.0000-0.5774 0.0000 ( 37832 PWs)   bands (ev):

   -61.8709 -61.8701 -48.2914 -48.2905 -48.2901 -48.2892 -48.2865 -48.2860
   -48.2853 -48.2847 -48.2478 -48.2466 -48.2465 -48.2462 -48.2456 -48.2453
   -48.2450 -48.2444 -48.2248 -48.2240 -48.2236 -48.2229 -36.1726 -36.1712
   -35.9631 -35.9617 -35.9553 -35.9543 -13.6701 -13.6665 -13.1794 -13.1770
    -6.9623  -6.9585  -5.5688  -5.5668  -4.8444  -4.8418  -3.7158  -3.7105
    -2.9861  -2.9845  -2.4451  -2.4446  -1.4123  -1.4093   0.7120   0.7144
     1.1655   1.1659   2.8376   2.8402   3.3765   3.3817   4.3445

          k = 0.0625 0.1083 0.0000 ( 37709 PWs)   bands (ev):

   -61.8935 -61.8926 -48.2912 -48.2908 -48.2907 -48.2902 -48.2900 -48.2895
   -48.2894 -48.2889 -48.2460 -48.2459 -48.2453 -48.2452 -48.2448 -48.2447
   -48.2441 -48.2440 -48.2269 -48.2261 -48.2257 -48.2250 -36.0082 -36.0072
   -35.9301 -35.9288 -35.9069 -35.9056 -15.1259 -15.1225 -14.3888 -14.3872
    -6.2077  -6.2047  -4.1903  -4.1859  -3.2824  -3.2763  -2.7356  -2.7318
    -1.8769  -1.8748  -1.4992  -1.4958  -1.3821  -1.3785   0.0612   0.0660
     0.4322   0.4341   2.2461   2.2692   2.7537   2.7570   3.2106

          k = 0.0625 0.1804 0.0000 ( 37703 PWs)   bands (ev):

   -61.8901 -61.8892 -48.2912 -48.2907 -48.2901 -48.2900 -48.2896 -48.2894
   -48.2889 -48.2883 -48.2462 -48.2460 -48.2455 -48.2453 -48.2451 -48.2448
   -48.2443 -48.2441 -48.2265 -48.2258 -48.2254 -48.2247 -36.0003 -35.9992
   -35.9667 -35.9654 -35.9163 -35.9150 -14.9108 -14.9075 -14.2777 -14.2759
    -5.9198  -5.9167  -4.6040  -4.5994  -3.2767  -3.2709  -2.8112  -2.8087
    -2.4539  -2.4514  -1.7540  -1.7508  -1.4141  -1.4107   0.0601   0.0655
     0.4326   0.4341   1.9264   1.9504   2.5800   2.5831   3.5217

          k = 0.0625 0.2526 0.0000 ( 37702 PWs)   bands (ev):

   -61.8856 -61.8847 -48.2912 -48.2906 -48.2899 -48.2893 -48.2893 -48.2887
   -48.2881 -48.2875 -48.2466 -48.2461 -48.2456 -48.2454 -48.2454 -48.2449
   -48.2444 -48.2442 -48.2261 -48.2254 -48.2249 -48.2243 -36.0145 -36.0131
   -35.9896 -35.9886 -35.9287 -35.9274 -14.6107 -14.6074 -14.1216 -14.1195
    -5.5522  -5.5491  -4.9481  -4.9436  -3.8357  -3.8320  -3.2225  -3.2178
    -2.5997  -2.5977  -1.9639  -1.9614  -1.4445  -1.4424  -0.0035   0.0010
     0.5116   0.5145   1.8196   1.8424   2.5494   2.5558   3.9461

          k = 0.0625 0.3248 0.0000 ( 37734 PWs)   bands (ev):

   -61.8807 -61.8799 -48.2912 -48.2905 -48.2899 -48.2893 -48.2884 -48.2879
   -48.2872 -48.2866 -48.2470 -48.2462 -48.2458 -48.2458 -48.2454 -48.2450
   -48.2446 -48.2442 -48.2257 -48.2249 -48.2245 -48.2238 -36.0654 -36.0640
   -35.9783 -35.9773 -35.9421 -35.9408 -14.2623 -14.2591 -13.9281 -13.9257
    -5.4452  -5.4411  -4.9242  -4.9212  -4.7800  -4.7763  -3.4619  -3.4575
    -2.7251  -2.7237  -2.2789  -2.2766  -1.4339  -1.4317   0.0476   0.0512
     0.6607   0.6628   1.9575   1.9776   2.6398   2.6510   4.4683

          k = 0.0625 0.3969 0.0000 ( 37770 PWs)   bands (ev):

   -61.8762 -61.8754 -48.2912 -48.2905 -48.2899 -48.2892 -48.2876 -48.2871
   -48.2864 -48.2858 -48.2473 -48.2464 -48.2461 -48.2460 -48.2455 -48.2452
   -48.2448 -48.2443 -48.2252 -48.2245 -48.2241 -48.2234 -36.1121 -36.1107
   -35.9679 -35.9669 -35.9544 -35.9531 -13.9461 -13.9429 -13.6839 -13.6813
    -5.8153  -5.8113  -5.4810  -5.4777  -4.5587  -4.5558  -3.7070  -3.7029
    -2.9891  -2.9877  -2.4969  -2.4949  -1.3659  -1.3635   0.2453   0.2474
     0.8179   0.8196   2.2490   2.2604   2.8095   2.8261   5.0258

          k = 0.0625 0.4691 0.0000 ( 37798 PWs)   bands (ev):

   -61.8728 -61.8719 -48.2912 -48.2904 -48.2899 -48.2891 -48.2870 -48.2864
   -48.2857 -48.2852 -48.2476 -48.2465 -48.2464 -48.2461 -48.2456 -48.2453
   -48.2449 -48.2444 -48.2249 -48.2242 -48.2238 -48.2231 -36.1476 -36.1462
   -35.9642 -35.9629 -35.9595 -35.9585 -13.7486 -13.7452 -13.3983 -13.3957
    -6.4703  -6.4665  -5.5874  -5.5845  -4.5531  -4.5507  -3.8008  -3.7964
    -3.1041  -3.1023  -2.6022  -2.6006  -1.3259  -1.3236   0.4876   0.4891
     1.0003   1.0016   2.4781   2.4815   3.0673   3.0830   5.1091

          k = 0.0625 0.5413 0.0000 ( 37791 PWs)   bands (ev):

   -61.8709 -61.8701 -48.2912 -48.2903 -48.2900 -48.2891 -48.2866 -48.2861
   -48.2854 -48.2848 -48.2477 -48.2466 -48.2466 -48.2461 -48.2456 -48.2454
   -48.2449 -48.2444 -48.2248 -48.2240 -48.2236 -48.2229 -36.1668 -36.1653
   -35.9691 -35.9678 -35.9553 -35.9544 -13.6555 -13.6519 -13.2031 -13.2006
    -6.8572  -6.8534  -5.5698  -5.5676  -4.7630  -4.7604  -3.8184  -3.8137
    -2.9909  -2.9891  -2.6745  -2.6732  -1.3269  -1.3248   0.6678   0.6698
     1.1302   1.1308   2.5762   2.5785   3.3151   3.3224   4.6451

          k = 0.1250 0.2165 0.0000 ( 37731 PWs)   bands (ev):

   -61.8863 -61.8854 -48.2911 -48.2906 -48.2899 -48.2895 -48.2893 -48.2890
   -48.2883 -48.2877 -48.2466 -48.2460 -48.2456 -48.2454 -48.2454 -48.2448
   -48.2444 -48.2442 -48.2262 -48.2254 -48.2250 -48.2243 -36.0046 -36.0032
   -35.9914 -35.9904 -35.9293 -35.9280 -14.6572 -14.6540 -14.1475 -14.1454
    -5.5829  -5.5799  -4.9158  -4.9111  -3.6941  -3.6896  -3.0095  -3.0072
    -2.8639  -2.8598  -1.9318  -1.9293  -1.3236  -1.3208   0.0522   0.0544
     0.3113   0.3169   2.1488   2.1771   2.1849   2.1879   3.8845

          k = 0.1250 0.2887 0.0000 ( 37723 PWs)   bands (ev):

   -61.8818 -61.8809 -48.2910 -48.2904 -48.2898 -48.2891 -48.2887 -48.2882
   -48.2875 -48.2869 -48.2469 -48.2462 -48.2457 -48.2457 -48.2455 -48.2450
   -48.2445 -48.2443 -48.2258 -48.2250 -48.2246 -48.2239 -36.0481 -36.0468
   -35.9811 -35.9801 -35.9453 -35.9439 -14.3348 -14.3316 -13.9802 -13.9779
    -5.2691  -5.2652  -5.0801  -5.0764  -4.4619  -4.4581  -3.4618  -3.4587
    -2.9536  -2.9500  -2.1994  -2.1979  -1.1965  -1.1944  -0.1609  -0.1581
     0.6046   0.6090   1.8717   1.8761   2.4603   2.4890   4.3558

          k = 0.1250 0.3608 0.0000 ( 37761 PWs)   bands (ev):

   -61.8773 -61.8764 -48.2909 -48.2902 -48.2897 -48.2890 -48.2880 -48.2875
   -48.2868 -48.2862 -48.2472 -48.2463 -48.2460 -48.2459 -48.2456 -48.2451
   -48.2447 -48.2444 -48.2254 -48.2246 -48.2242 -48.2235 -36.0911 -36.0896
   -35.9713 -35.9702 -35.9610 -35.9597 -13.9946 -13.9915 -13.7793 -13.7767
    -5.4721  -5.4678  -5.2618  -5.2584  -4.6658  -4.6628  -3.8498  -3.8465
    -3.0529  -3.0499  -2.6296  -2.6282  -1.0653  -1.0635  -0.1254  -0.1231
     0.8883   0.8907   1.7900   1.7942   2.7712   2.7976   4.9105

          k = 0.1250 0.4330 0.0000 ( 37768 PWs)   bands (ev):

   -61.8735 -61.8726 -48.2908 -48.2901 -48.2896 -48.2888 -48.2874 -48.2869
   -48.2862 -48.2856 -48.2475 -48.2465 -48.2463 -48.2460 -48.2457 -48.2453
   -48.2448 -48.2445 -48.2250 -48.2243 -48.2238 -48.2231 -36.1271 -36.1256
   -35.9763 -35.9750 -35.9610 -35.9600 -13.7446 -13.7414 -13.5162 -13.5135
    -6.0617  -6.0580  -5.5208  -5.5174  -4.3951  -4.3925  -4.0770  -4.0735
    -3.1644  -3.1619  -2.9782  -2.9765  -1.0331  -1.0318   0.1186   0.1201
     1.0793   1.0807   1.9005   1.9036   3.0554   3.0739   5.3912

          k = 0.1250 0.5052 0.0000 ( 37794 PWs)   bands (ev):

   -61.8709 -61.8701 -48.2908 -48.2900 -48.2896 -48.2887 -48.2870 -48.2865
   -48.2857 -48.2852 -48.2476 -48.2467 -48.2464 -48.2460 -48.2457 -48.2455
   -48.2448 -48.2445 -48.2248 -48.2240 -48.2236 -48.2229 -36.1510 -36.1495
   -35.9854 -35.9841 -35.9553 -35.9544 -13.6128 -13.6093 -13.2672 -13.2646
    -6.5650  -6.5613  -5.5541  -5.5512  -4.5677  -4.5652  -4.0288  -4.0249
    -3.2458  -3.2435  -3.0421  -3.0402  -1.0902  -1.0892   0.4568   0.4581
     1.1288   1.1299   2.0679   2.0700   3.2481   3.2569   5.2971

          k = 0.1250 0.5774 0.0000 ( 37780 PWs)   bands (ev):

   -61.8700 -61.8692 -48.2908 -48.2899 -48.2896 -48.2887 -48.2868 -48.2863
   -48.2856 -48.2850 -48.2477 -48.2468 -48.2465 -48.2461 -48.2457 -48.2456
   -48.2449 -48.2445 -48.2247 -48.2239 -48.2235 -48.2228 -36.1593 -36.1579
   -35.9887 -35.9873 -35.9533 -35.9523 -13.5691 -13.5656 -13.1679 -13.1653
    -6.7485  -6.7448  -5.5460  -5.5435  -4.6823  -4.6797  -4.0252  -4.0212
    -3.2750  -3.2728  -2.9967  -2.9948  -1.1292  -1.1283   0.6585   0.6602
     1.0803   1.0811   2.1512   2.1529   3.3154   3.3195   5.0141

          k = 0.1875 0.3248 0.0000 ( 37725 PWs)   bands (ev):

   -61.8777 -61.8768 -48.2908 -48.2901 -48.2895 -48.2888 -48.2882 -48.2877
   -48.2870 -48.2864 -48.2472 -48.2463 -48.2460 -48.2459 -48.2456 -48.2451
   -48.2447 -48.2444 -48.2254 -48.2246 -48.2242 -48.2235 -36.0815 -36.0801
   -35.9734 -35.9723 -35.9646 -35.9633 -14.0100 -14.0069 -13.8140 -13.8114
    -5.3398  -5.3354  -5.0932  -5.0894  -4.7548  -4.7519  -3.8528  -3.8503
    -3.3337  -3.3298  -2.5102  -2.5091  -0.8971  -0.8951  -0.3052  -0.3029
     0.8862   0.8893   1.6043   1.6060   2.7586   2.7881   4.8652

          k = 0.1875 0.3969 0.0000 ( 37753 PWs)   bands (ev):

   -61.8739 -61.8730 -48.2905 -48.2898 -48.2893 -48.2885 -48.2878 -48.2872
   -48.2865 -48.2859 -48.2474 -48.2465 -48.2462 -48.2460 -48.2457 -48.2453
   -48.2448 -48.2445 -48.2250 -48.2243 -48.2239 -48.2232 -36.1103 -36.1088
   -35.9886 -35.9873 -35.9618 -35.9609 -13.7070 -13.7039 -13.6166 -13.6138
    -5.6929  -5.6891  -5.4435  -5.4395  -4.3542  -4.3514  -4.2048  -4.2021
    -3.6594  -3.6560  -2.9090  -2.9078  -0.6905  -0.6892  -0.2368  -0.2353
     1.1084   1.1101   1.5234   1.5255   3.0566   3.0770   5.4207

          k = 0.1875 0.4691 0.0000 ( 37759 PWs)   bands (ev):

   -61.8709 -61.8701 -48.2903 -48.2895 -48.2891 -48.2882 -48.2874 -48.2869
   -48.2862 -48.2856 -48.2475 -48.2467 -48.2463 -48.2461 -48.2457 -48.2455
   -48.2449 -48.2445 -48.2248 -48.2240 -48.2236 -48.2229 -36.1312 -36.1297
   -36.0057 -36.0043 -35.9554 -35.9544 -13.5466 -13.5433 -13.3543 -13.3515
    -6.1771  -6.1734  -5.5108  -5.5073  -4.4267  -4.4238  -4.1181  -4.1153
    -3.8849  -3.8822  -3.1790  -3.1774  -0.7418  -0.7412   0.1054   0.1064
     1.1489   1.1501   1.6743   1.6766   3.2272   3.2364   5.6823

          k = 0.1875 0.5413 0.0000 ( 37793 PWs)   bands (ev):

   -61.8694 -61.8685 -48.2902 -48.2894 -48.2890 -48.2881 -48.2872 -48.2867
   -48.2860 -48.2854 -48.2476 -48.2469 -48.2464 -48.2462 -48.2457 -48.2457
   -48.2450 -48.2445 -48.2246 -48.2239 -48.2234 -48.2228 -36.1421 -36.1407
   -36.0153 -36.0140 -35.9518 -35.9508 -13.4690 -13.4656 -13.1848 -13.1820
    -6.4544  -6.4508  -5.5393  -5.5361  -4.5203  -4.5173  -4.1608  -4.1578
    -3.9597  -3.9574  -3.2002  -3.1984  -0.8297  -0.8293   0.4724   0.4732
     1.0014   1.0027   1.8856   1.8871   3.2261   3.2298   5.6223

          k = 0.2500 0.4330 0.0000 ( 37711 PWs)   bands (ev):

   -61.8709 -61.8701 -48.2901 -48.2893 -48.2888 -48.2880 -48.2876 -48.2871
   -48.2864 -48.2858 -48.2475 -48.2467 -48.2463 -48.2462 -48.2457 -48.2455
   -48.2450 -48.2445 -48.2248 -48.2240 -48.2236 -48.2229 -36.1207 -36.1193
   -36.0163 -36.0149 -35.9554 -35.9544 -13.4848 -13.4816 -13.4246 -13.4217
    -5.9566  -5.9529  -5.4793  -5.4754  -4.4082  -4.4058  -4.2483  -4.2450
    -4.0437  -4.0409  -3.2747  -3.2735  -0.3312  -0.3302  -0.3102  -0.3091
     1.1443   1.1454   1.5494   1.5516   3.2256   3.2348   5.8521

          k = 0.2500 0.5052 0.0000 ( 37776 PWs)   bands (ev):

   -61.8690 -61.8681 -48.2897 -48.2889 -48.2884 -48.2877 -48.2876 -48.2871
   -48.2864 -48.2858 -48.2475 -48.2469 -48.2464 -48.2463 -48.2457 -48.2457
   -48.2452 -48.2445 -48.2246 -48.2239 -48.2234 -48.2228 -36.1233 -36.1219
   -36.0394 -36.0380 -35.9509 -35.9500 -13.3751 -13.3718 -13.2376 -13.2347
    -6.1043  -6.1007  -5.5310  -5.5272  -4.6677  -4.6642  -4.3855  -4.3833
    -3.9699  -3.9676  -3.5126  -3.5110  -0.4334  -0.4331   0.0624   0.0630
     0.9646   0.9660   1.8410   1.8432   3.1567   3.1596   5.7949

          k = 0.2500 0.5774 0.0000 ( 37791 PWs)   bands (ev):

   -61.8683 -61.8674 -48.2895 -48.2887 -48.2883 -48.2877 -48.2874 -48.2872
   -48.2865 -48.2859 -48.2474 -48.2470 -48.2464 -48.2462 -48.2458 -48.2457
   -48.2452 -48.2445 -48.2245 -48.2238 -48.2234 -48.2227 -36.1227 -36.1213
   -36.0489 -36.0475 -35.9494 -35.9484 -13.3364 -13.3331 -13.1677 -13.1648
    -6.1472  -6.1437  -5.5612  -5.5575  -4.8207  -4.8171  -4.2058  -4.2036
    -4.1861  -4.1842  -3.5134  -3.5116  -0.4842  -0.4840   0.3211   0.3212
     0.7574   0.7593   2.0605   2.0617   3.0199   3.0220   5.6853

          k = 0.3125 0.5413 0.0000 ( 37789 PWs)   bands (ev):

   -61.8679 -61.8671 -48.2891 -48.2883 -48.2880 -48.2878 -48.2875 -48.2871
   -48.2868 -48.2862 -48.2473 -48.2470 -48.2466 -48.2461 -48.2459 -48.2456
   -48.2454 -48.2445 -48.2245 -48.2238 -48.2233 -48.2227 -36.1052 -36.1038
   -36.0714 -36.0700 -35.9485 -35.9476 -13.2570 -13.2537 -13.1951 -13.1921
    -5.8430  -5.8395  -5.5709  -5.5670  -5.2603  -5.2569  -4.2188  -4.2169
    -3.8807  -3.8786  -3.8782  -3.8772  -0.1468  -0.1462   0.0306   0.0308
     0.6577   0.6599   2.2681   2.2700   2.8329   2.8346   5.6176

     the Fermi energy is    -0.2959 ev

!    total energy              =   -2326.92213548 Ry
     total all-electron energy =    -35628.669964 Ry
     estimated scf accuracy    <          4.5E-09 Ry
     smearing contrib. (-TS)   =       0.00090153 Ry
     internal energy E=F+TS    =   -2326.92303701 Ry

     The total energy is F=E-TS. E is the sum of the following terms:
     one-electron contribution =  -20151.31478284 Ry
     hartree contribution      =   10063.88541261 Ry
     xc contribution           =    -152.42421640 Ry
     ewald contribution        =    8923.44505606 Ry
     one-center paw contrib.   =   -1010.51450645 Ry

     convergence has been achieved in  23 iterations

     Writing all to output data dir ./tmp/cleave_024/mose2_cleave_024.save/ :
     XML data file, charge density, pseudopotentials, collected wavefunctions

     init_run     :     11.78s CPU     12.02s WALL (       1 calls)
     electrons    :    445.86s CPU    455.76s WALL (       1 calls)

     Called by init_run:
     wfcinit      :      5.38s CPU      5.42s WALL (       1 calls)
     potinit      :      5.75s CPU      5.80s WALL (       1 calls)
     hinit0       :      0.05s CPU      0.06s WALL (       1 calls)

     Called by electrons:
     c_bands      :    372.17s CPU    376.33s WALL (      24 calls)
     sum_band     :     48.60s CPU     51.32s WALL (      24 calls)
     v_of_rho     :     14.76s CPU     15.62s WALL (      24 calls)
     newd         :      8.94s CPU     11.17s WALL (      24 calls)
     PAW_pot      :      1.49s CPU      1.53s WALL (      24 calls)
     mix_rho      :      5.78s CPU      5.82s WALL (      24 calls)
     vdW_kernel   :      5.27s CPU      5.27s WALL (       1 calls)

     Called by c_bands:
     init_us_2    :      2.93s CPU      2.94s WALL (    1470 calls)
     cegterg      :    364.00s CPU    367.98s WALL (     720 calls)

     Called by *egterg:
     cdiaghg      :     10.50s CPU     10.51s WALL (    3255 calls)
     h_psi        :    154.36s CPU    155.55s WALL (    3315 calls)
     s_psi        :     29.95s CPU     29.99s WALL (    3315 calls)
     g_psi        :      0.51s CPU      0.52s WALL (    2565 calls)

     Called by h_psi:
     h_psi:calbec :     46.70s CPU     47.25s WALL (    3315 calls)
     vloc_psi     :     70.46s CPU     71.05s WALL (    3315 calls)
                                        0.00s GPU  (    3315 calls)
     add_vuspsi   :     36.65s CPU     36.69s WALL (    3315 calls)

     General routines
     calbec       :     66.75s CPU     67.57s WALL (    4035 calls)
     fft          :      5.91s CPU      6.05s WALL (    1511 calls)
     ffts         :      2.10s CPU      2.10s WALL (    2754 calls)
     fftw         :     78.35s CPU     79.02s WALL (  216252 calls)
     interpolate  :      0.11s CPU      0.11s WALL (      24 calls)

     Parallel routines

     PWSCF        :   7m38.25s CPU   7m48.58s WALL


   This run was terminated on:  11:59:52  20Jun2026            

=------------------------------------------------------------------------------=
   JOB DONE.
=------------------------------------------------------------------------------=
Note: The following floating-point exceptions are signalling: IEEE_UNDERFLOW_FLAG IEEE_DENORMAL
Note: The following floating-point exceptions are signalling: IEEE_UNDERFLOW_FLAG IEEE_DENORMAL
Note: The following floating-point exceptions are signalling: IEEE_UNDERFLOW_FLAG IEEE_DENORMAL
Note: The following floating-point exceptions are signalling: IEEE_UNDERFLOW_FLAG IEEE_DENORMAL
Note: The following floating-point exceptions are signalling: IEEE_UNDERFLOW_FLAG IEEE_DENORMAL
Note: The following floating-point exceptions are signalling: IEEE_UNDERFLOW_FLAG IEEE_DENORMAL
Note: The following floating-point exceptions are signalling: IEEE_UNDERFLOW_FLAG IEEE_DENORMAL
Note: The following floating-point exceptions are signalling: IEEE_UNDERFLOW_FLAG IEEE_DENORMAL
Note: The following floating-point exceptions are signalling: IEEE_UNDERFLOW_FLAG IEEE_DENORMAL
Note: The following floating-point exceptions are signalling: IEEE_UNDERFLOW_FLAG IEEE_DENORMAL
Note: The following floating-point exceptions are signalling: IEEE_UNDERFLOW_FLAG IEEE_DENORMAL
Note: The following floating-point exceptions are signalling: IEEE_UNDERFLOW_FLAG IEEE_DENORMAL
Note: The following floating-point exceptions are signalling: IEEE_UNDERFLOW_FLAG IEEE_DENORMAL
Note: The following floating-point exceptions are signalling: IEEE_UNDERFLOW_FLAG IEEE_DENORMAL
Note: The following floating-point exceptions are signalling: IEEE_UNDERFLOW_FLAG IEEE_DENORMAL
Note: The following floating-point exceptions are signalling: IEEE_UNDERFLOW_FLAG IEEE_DENORMAL
Note: The following floating-point exceptions are signalling: IEEE_UNDERFLOW_FLAG IEEE_DENORMAL
Note: The following floating-point exceptions are signalling: IEEE_UNDERFLOW_FLAG IEEE_DENORMAL
Note: The following floating-point exceptions are signalling: IEEE_UNDERFLOW_FLAG IEEE_DENORMAL
Note: The following floating-point exceptions are signalling: IEEE_UNDERFLOW_FLAG IEEE_DENORMAL
Note: The following floating-point exceptions are signalling: IEEE_UNDERFLOW_FLAG IEEE_DENORMAL
Note: The following floating-point exceptions are signalling: IEEE_UNDERFLOW_FLAG IEEE_DENORMAL
Note: The following floating-point exceptions are signalling: IEEE_UNDERFLOW_FLAG IEEE_DENORMAL
Note: The following floating-point exceptions are signalling: IEEE_UNDERFLOW_FLAG IEEE_DENORMAL
