
     Program PWSCF v.7.5 starts on 20Jun2026 at 13: 4:19 

     This program is part of the open-source Quantum ESPRESSO suite
     for quantum simulation of materials; please cite
         "P. Giannozzi et al., J. Phys.:Condens. Matter 21 395502 (2009);
         "P. Giannozzi et al., J. Phys.:Condens. Matter 29 465901 (2017);
         "P. Giannozzi et al., J. Chem. Phys. 152 154105 (2020);
          URL http://www.quantum-espresso.org", 
     in publications or presentations arising from this work. More details at
     http://www.quantum-espresso.org/quote

     Parallel version (MPI), running on    24 processors

     MPI processes distributed on     1 nodes
     24084 MiB available memory on the printing compute node when the environment starts

     Waiting for input...
     Reading input from standard input

     Current dimensions of program PWSCF are:
     Max number of different atomic species (ntypx) = 10
     Max number of k-points (npk) =  40000
     Max angular momentum in pseudopotentials (lmaxx) =  4
     file Mo.pbe-spn-kjpaw_psl.1.0.0.UPF: wavefunction(s)  4S 4D renormalized
     file Se.pbe-dn-kjpaw_psl.1.0.0.UPF: wavefunction(s)  4S 4P 3D renormalized

     IMPORTANT: XC functional enforced from input :
     Exchange-correlation= VDW-DF2-B86R
                           (   1   4  26   0   2   0   0)
     Any further DFT definition will be discarded
     Please, verify this is what you really want


     R & G space division:  proc/nbgrp/npool/nimage =      24
     Subspace diagonalization in iterative solution of the eigenvalue problem:
     a serial algorithm will be used


     Parallelization info
     --------------------
     sticks:   dense  smooth     PW     G-vecs:    dense   smooth      PW
     Min          69      35     10                35537    12585    1924
     Max          70      36     11                35620    12648    1981
     Sum        1675     847    241               853823   302525   46513

     Using Slab Decomposition



     bravais-lattice index     =            4
     lattice parameter (alat)  =       6.1794  a.u.
     unit-cell volume          =    3124.5879 (a.u.)^3
     number of atoms/cell      =            6
     number of atomic types    =            2
     number of electrons       =        92.00
     number of Kohn-Sham states=           55
     kinetic-energy cutoff     =      80.0000  Ry
     charge density cutoff     =     640.0000  Ry
     scf convergence threshold =      1.0E-08
     mixing beta               =       0.3000
     number of iterations used =            8  local-TF  mixing
     Exchange-correlation= VDW-DF2-B86R
                           (   1   4  26   0   2   0   0)

     celldm(1)=   6.179404  celldm(2)=   0.000000  celldm(3)=  15.290520
     celldm(4)=   0.000000  celldm(5)=   0.000000  celldm(6)=   0.000000

     crystal axes: (cart. coord. in units of alat)
               a(1) = (   1.000000   0.000000   0.000000 )  
               a(2) = (  -0.500000   0.866025   0.000000 )  
               a(3) = (   0.000000   0.000000  15.290520 )  

     reciprocal axes: (cart. coord. in units 2 pi/alat)
               b(1) = (  1.000000  0.577350 -0.000000 )  
               b(2) = (  0.000000  1.154701  0.000000 )  
               b(3) = (  0.000000 -0.000000  0.065400 )  


     PseudoPot. # 1 for Mo read from file:
     ./pseudo/Mo.pbe-spn-kjpaw_psl.1.0.0.UPF
     MD5 check sum: 4396e0c640fcce5c25f020efccf1ab12
     Pseudo is Projector augmented-wave + core cor, Zval = 14.0
     Generated using &quot;atomic&quot; code by A. Dal Corso  v.6.3
     Shape of augmentation charge: PSQ
     Using radial grid of 1229 points,  6 beta functions with: 
                l(1) =   0
                l(2) =   0
                l(3) =   1
                l(4) =   1
                l(5) =   2
                l(6) =   2
     Q(r) pseudized with 0 coefficients 


     PseudoPot. # 2 for Se read from file:
     ./pseudo/Se.pbe-dn-kjpaw_psl.1.0.0.UPF
     MD5 check sum: ac240dd2bae32a30e0bf3a38df9c8785
     Pseudo is Projector augmented-wave + core cor, Zval = 16.0
     Generated using &quot;atomic&quot; code by A. Dal Corso  v.6.3
     Shape of augmentation charge: PSQ
     Using radial grid of 1211 points,  6 beta functions with: 
                l(1) =   0
                l(2) =   0
                l(3) =   1
                l(4) =   1
                l(5) =   2
                l(6) =   2
     Q(r) pseudized with 0 coefficients 


     atomic species   valence    mass     pseudopotential
     Mo               14.00    95.96000     Mo( 1.00)
     Se               16.00    78.96000     Se( 1.00)

      6 Sym. Ops. (no inversion) found



   Cartesian axes

     site n.     atom                  positions (alat units)
         1        Se     tau(   1) = (  -0.0000005   0.5773506   6.1238532  )
         2        Mo     tau(   2) = (   0.0000000   0.0000000   6.6502752  )
         3        Se     tau(   3) = (   0.5000005   0.2886748   7.1775994  )
         4        Se     tau(   4) = (  -0.0000005   0.5773506  10.1306881  )
         5        Mo     tau(   5) = (   0.5000005   0.2886748  10.6578746  )
         6        Se     tau(   6) = (   0.0000000   0.0000000  11.1850153  )

     number of k points=    30  Methfessel-Paxton smearing, width (Ry)=  0.0200
                       cart. coord. in units 2pi/alat
        k(    1) = (   0.0000000   0.0000000   0.0000000), wk =   0.0078125
        k(    2) = (   0.0000000   0.0721688   0.0000000), wk =   0.0468750
        k(    3) = (   0.0000000   0.1443376   0.0000000), wk =   0.0468750
        k(    4) = (   0.0000000   0.2165064   0.0000000), wk =   0.0468750
        k(    5) = (   0.0000000   0.2886751   0.0000000), wk =   0.0468750
        k(    6) = (   0.0000000   0.3608439   0.0000000), wk =   0.0468750
        k(    7) = (   0.0000000   0.4330127   0.0000000), wk =   0.0468750
        k(    8) = (   0.0000000   0.5051815   0.0000000), wk =   0.0468750
        k(    9) = (   0.0000000  -0.5773503   0.0000000), wk =   0.0234375
        k(   10) = (   0.0625000   0.1082532   0.0000000), wk =   0.0468750
        k(   11) = (   0.0625000   0.1804220   0.0000000), wk =   0.0937500
        k(   12) = (   0.0625000   0.2525907   0.0000000), wk =   0.0937500
        k(   13) = (   0.0625000   0.3247595   0.0000000), wk =   0.0937500
        k(   14) = (   0.0625000   0.3969283   0.0000000), wk =   0.0937500
        k(   15) = (   0.0625000   0.4690971   0.0000000), wk =   0.0937500
        k(   16) = (   0.0625000   0.5412659   0.0000000), wk =   0.0937500
        k(   17) = (   0.1250000   0.2165064   0.0000000), wk =   0.0468750
        k(   18) = (   0.1250000   0.2886751   0.0000000), wk =   0.0937500
        k(   19) = (   0.1250000   0.3608439   0.0000000), wk =   0.0937500
        k(   20) = (   0.1250000   0.4330127   0.0000000), wk =   0.0937500
        k(   21) = (   0.1250000   0.5051815   0.0000000), wk =   0.0937500
        k(   22) = (   0.1250000   0.5773503   0.0000000), wk =   0.0468750
        k(   23) = (   0.1875000   0.3247595   0.0000000), wk =   0.0468750
        k(   24) = (   0.1875000   0.3969283   0.0000000), wk =   0.0937500
        k(   25) = (   0.1875000   0.4690971   0.0000000), wk =   0.0937500
        k(   26) = (   0.1875000   0.5412659   0.0000000), wk =   0.0937500
        k(   27) = (   0.2500000   0.4330127   0.0000000), wk =   0.0468750
        k(   28) = (   0.2500000   0.5051815   0.0000000), wk =   0.0937500
        k(   29) = (   0.2500000   0.5773503   0.0000000), wk =   0.0468750
        k(   30) = (   0.3125000   0.5412659   0.0000000), wk =   0.0468750

     Dense  grid:   853823 G-vectors     FFT dimensions: (  50,  50, 768)

     Smooth grid:   302525 G-vectors     FFT dimensions: (  36,  36, 540)

     Estimated max dynamical RAM per process >     171.88 MB

     Estimated total dynamical RAM >       4.03 GB

     Initial potential from superposition of free atoms

     starting charge      91.9979, renormalised to      92.0000

     negative rho (up, down):  1.597E-04 0.000E+00


     %%%%%%%%%%%%%%%%%%%%%%%%%%%%%%%%%%%%%%%%%%%%%%%%%%%%%%%%%%%%%%%%%%%%%%%%
     %                                                                      %
     % You are using vdW-DF, which was implemented by the Thonhauser group. %
     % Please cite the following two papers that made this development      %
     % possible and the two reviews that describe the various versions:     %
     %                                                                      %
     %   T. Thonhauser et al., PRL 115, 136402 (2015).                      %
     %   T. Thonhauser et al., PRB 76, 125112 (2007).                       %
     %   K. Berland et al., Rep. Prog. Phys. 78, 066501 (2015).             %
     %   D.C. Langreth et al., J. Phys.: Condens. Matter 21, 084203 (2009). %
     %                                                                      %
     % If you are calculating stress with vdW-DF, please also cite:         %
     %                                                                      %
     %   R. Sabatini et al., J. Phys.: Condens. Matter 24, 424209 (2012).   %
     %                                                                      %
     %%%%%%%%%%%%%%%%%%%%%%%%%%%%%%%%%%%%%%%%%%%%%%%%%%%%%%%%%%%%%%%%%%%%%%%%

     %%%%%%%%%%%%%%%%%%%%%%%%%%%%%%%%%%%%%%%%%%%%%%%%%%%%%%%%%%%%%%%%%%%%%%%%
     %                                                                      %
     %  vdW-DF NEWS:                                                        %
     %                                                                      %
     %  * vdW-DF3 is now available. DOI: 10.1021/acs.jctc.0c00471           %
     %    use with input_dft = 'vdW-DF3-opt1' or 'vdW-DF3-opt2'             %
     %                                                                      %
     %  * Unscreened and range-separated hybrid vdW-DF-cx functionals       %
     %    DOI: 10.1063/1.4986522 and 10.1088/1361-648X/ac2ad2               %
     %    use with input_dft = 'vdW-DF-cx0'    and 'vdW-DF-ahcx'            %
     %  * Unscreened and range-separated hybrid vdW-DF2-b86r functionals    %
     %    DOI: 10.1063/1.4986522 and DOI: 10.1103/PhysRevX.12.041003        %
     %    use with input_dft = 'vdW-DF2-br0' and 'vdW-DF2-ahbr'             %
     %                                                                      %
     %%%%%%%%%%%%%%%%%%%%%%%%%%%%%%%%%%%%%%%%%%%%%%%%%%%%%%%%%%%%%%%%%%%%%%%%


     Starting wfcs are   56 randomized atomic wfcs
     Checking if some PAW data can be deallocated... 

     total cpu time spent up to now is       12.0 secs

     per-process dynamical memory:    79.7 Mb

     Self-consistent Calculation

     iteration #  1     ecut=    80.00 Ry     beta= 0.30
     Davidson diagonalization with overlap
     ethr =  1.00E-02,  avg # of iterations =  4.4

     Threshold (ethr) on eigenvalues was too large:
     Diagonalizing with lowered threshold

     Davidson diagonalization with overlap
     ethr =  4.50E-04,  avg # of iterations =  2.1

     negative rho (up, down):  6.531E-05 0.000E+00

     total cpu time spent up to now is       49.7 secs

     total energy              =   -2326.96292534 Ry
     estimated scf accuracy    <       0.46095649 Ry

     iteration #  2     ecut=    80.00 Ry     beta= 0.30
     Davidson diagonalization with overlap
     ethr =  5.01E-04,  avg # of iterations =  1.2

     negative rho (up, down):  2.704E-05 0.000E+00

     total cpu time spent up to now is       65.8 secs

     total energy              =   -2326.91593131 Ry
     estimated scf accuracy    <       0.24544333 Ry

     iteration #  3     ecut=    80.00 Ry     beta= 0.30
     Davidson diagonalization with overlap
     ethr =  2.67E-04,  avg # of iterations =  5.7

     negative rho (up, down):  2.326E-06 0.000E+00

     total cpu time spent up to now is       85.2 secs

     total energy              =   -2326.92289603 Ry
     estimated scf accuracy    <       0.03238769 Ry

     iteration #  4     ecut=    80.00 Ry     beta= 0.30
     Davidson diagonalization with overlap
     ethr =  3.52E-05,  avg # of iterations =  6.4

     negative rho (up, down):  1.031E-06 0.000E+00

     total cpu time spent up to now is      105.9 secs

     total energy              =   -2326.92306032 Ry
     estimated scf accuracy    <       0.01070372 Ry

     iteration #  5     ecut=    80.00 Ry     beta= 0.30
     Davidson diagonalization with overlap
     c_bands:  1 eigenvalues not converged
     c_bands:  1 eigenvalues not converged
     ethr =  1.16E-05,  avg # of iterations =  4.6

     negative rho (up, down):  5.309E-07 0.000E+00

     total cpu time spent up to now is      126.3 secs

     total energy              =   -2326.92201808 Ry
     estimated scf accuracy    <       0.00464342 Ry

     iteration #  6     ecut=    80.00 Ry     beta= 0.30
     Davidson diagonalization with overlap
     c_bands:  1 eigenvalues not converged
     c_bands:  1 eigenvalues not converged
     ethr =  5.05E-06,  avg # of iterations =  6.8

     negative rho (up, down):  2.191E-07 0.000E+00

     total cpu time spent up to now is      148.1 secs

     total energy              =   -2326.92198720 Ry
     estimated scf accuracy    <       0.00164986 Ry

     iteration #  7     ecut=    80.00 Ry     beta= 0.30
     Davidson diagonalization with overlap
     c_bands:  1 eigenvalues not converged
     ethr =  1.79E-06,  avg # of iterations =  5.7

     negative rho (up, down):  4.116E-07 0.000E+00

     total cpu time spent up to now is      166.9 secs

     total energy              =   -2326.92177130 Ry
     estimated scf accuracy    <       0.00137225 Ry

     iteration #  8     ecut=    80.00 Ry     beta= 0.30
     Davidson diagonalization with overlap
     ethr =  1.49E-06,  avg # of iterations =  6.9

     negative rho (up, down):  4.870E-07 0.000E+00

     total cpu time spent up to now is      186.1 secs

     total energy              =   -2326.92178106 Ry
     estimated scf accuracy    <       0.00076004 Ry

     iteration #  9     ecut=    80.00 Ry     beta= 0.30
     Davidson diagonalization with overlap
     ethr =  8.26E-07,  avg # of iterations =  3.6

     negative rho (up, down):  2.282E-03 0.000E+00

     total cpu time spent up to now is      203.7 secs

     total energy              =   -2326.92185530 Ry
     estimated scf accuracy    <       0.00056297 Ry

     iteration # 10     ecut=    80.00 Ry     beta= 0.30
     Davidson diagonalization with overlap
     ethr =  6.12E-07,  avg # of iterations =  6.7

     negative rho (up, down):  2.942E-03 0.000E+00

     total cpu time spent up to now is      222.8 secs

     total energy              =   -2326.92183419 Ry
     estimated scf accuracy    <       0.00046608 Ry

     iteration # 11     ecut=    80.00 Ry     beta= 0.30
     Davidson diagonalization with overlap
     ethr =  5.07E-07,  avg # of iterations =  1.4

     negative rho (up, down):  3.255E-03 0.000E+00

     total cpu time spent up to now is      239.5 secs

     total energy              =   -2326.92176145 Ry
     estimated scf accuracy    <       0.00039042 Ry

     iteration # 12     ecut=    80.00 Ry     beta= 0.30
     Davidson diagonalization with overlap
     ethr =  4.24E-07,  avg # of iterations =  3.3

     negative rho (up, down):  4.596E-03 0.000E+00

     total cpu time spent up to now is      257.4 secs

     total energy              =   -2326.92170222 Ry
     estimated scf accuracy    <       0.00028972 Ry

     iteration # 13     ecut=    80.00 Ry     beta= 0.30
     Davidson diagonalization with overlap
     ethr =  3.15E-07,  avg # of iterations =  6.5

     negative rho (up, down):  4.398E-03 0.000E+00

     total cpu time spent up to now is      275.6 secs

     total energy              =   -2326.92156028 Ry
     estimated scf accuracy    <       0.00018849 Ry

     iteration # 14     ecut=    80.00 Ry     beta= 0.30
     Davidson diagonalization with overlap
     ethr =  2.05E-07,  avg # of iterations =  7.9

     negative rho (up, down):  3.570E-03 0.000E+00

     total cpu time spent up to now is      295.9 secs

     total energy              =   -2326.92163069 Ry
     estimated scf accuracy    <       0.00003890 Ry

     iteration # 15     ecut=    80.00 Ry     beta= 0.30
     Davidson diagonalization with overlap
     ethr =  4.23E-08,  avg # of iterations =  2.4

     negative rho (up, down):  1.363E-03 0.000E+00

     total cpu time spent up to now is      313.1 secs

     total energy              =   -2326.92172106 Ry
     estimated scf accuracy    <       0.00002308 Ry

     iteration # 16     ecut=    80.00 Ry     beta= 0.30
     Davidson diagonalization with overlap
     ethr =  2.51E-08,  avg # of iterations =  6.5

     negative rho (up, down):  8.634E-04 0.000E+00

     total cpu time spent up to now is      335.3 secs

     total energy              =   -2326.92173328 Ry
     estimated scf accuracy    <       0.00000563 Ry

     iteration # 17     ecut=    80.00 Ry     beta= 0.30
     Davidson diagonalization with overlap
     ethr =  6.11E-09,  avg # of iterations =  1.7

     negative rho (up, down):  7.281E-04 0.000E+00

     total cpu time spent up to now is      352.5 secs

     total energy              =   -2326.92173625 Ry
     estimated scf accuracy    <       0.00000337 Ry

     iteration # 18     ecut=    80.00 Ry     beta= 0.30
     Davidson diagonalization with overlap
     ethr =  3.66E-09,  avg # of iterations =  6.3

     negative rho (up, down):  4.477E-04 0.000E+00

     total cpu time spent up to now is      372.0 secs

     total energy              =   -2326.92173802 Ry
     estimated scf accuracy    <       0.00000212 Ry

     iteration # 19     ecut=    80.00 Ry     beta= 0.30
     Davidson diagonalization with overlap
     ethr =  2.30E-09,  avg # of iterations =  2.7

     negative rho (up, down):  2.519E-04 0.000E+00

     total cpu time spent up to now is      391.8 secs

     total energy              =   -2326.92174224 Ry
     estimated scf accuracy    <       0.00000051 Ry

     iteration # 20     ecut=    80.00 Ry     beta= 0.30
     Davidson diagonalization with overlap
     ethr =  5.52E-10,  avg # of iterations =  3.3

     negative rho (up, down):  2.382E-04 0.000E+00

     total cpu time spent up to now is      410.4 secs

     total energy              =   -2326.92174332 Ry
     estimated scf accuracy    <       0.00000019 Ry

     iteration # 21     ecut=    80.00 Ry     beta= 0.30
     Davidson diagonalization with overlap
     ethr =  2.05E-10,  avg # of iterations =  2.3

     negative rho (up, down):  2.472E-04 0.000E+00

     total cpu time spent up to now is      430.0 secs

     total energy              =   -2326.92174323 Ry
     estimated scf accuracy    <       0.00000007 Ry

     iteration # 22     ecut=    80.00 Ry     beta= 0.30
     Davidson diagonalization with overlap
     ethr =  7.71E-11,  avg # of iterations =  2.1

     negative rho (up, down):  2.192E-04 0.000E+00

     total cpu time spent up to now is      448.1 secs

     total energy              =   -2326.92174294 Ry
     estimated scf accuracy    <       0.00000003 Ry

     iteration # 23     ecut=    80.00 Ry     beta= 0.30
     Davidson diagonalization with overlap
     ethr =  3.33E-11,  avg # of iterations =  2.5

     negative rho (up, down):  1.940E-04 0.000E+00

     total cpu time spent up to now is      466.7 secs

     total energy              =   -2326.92174269 Ry
     estimated scf accuracy    <       0.00000001 Ry

     iteration # 24     ecut=    80.00 Ry     beta= 0.30
     Davidson diagonalization with overlap
     ethr =  1.63E-11,  avg # of iterations =  2.6

     negative rho (up, down):  1.881E-04 0.000E+00

     total cpu time spent up to now is      485.2 secs

     End of self-consistent calculation

          k = 0.0000 0.0000 0.0000 ( 37787 PWs)   bands (ev):

   -61.8962 -61.8953 -48.2913 -48.2913 -48.2909 -48.2909 -48.2897 -48.2897
   -48.2895 -48.2895 -48.2457 -48.2457 -48.2453 -48.2453 -48.2442 -48.2442
   -48.2440 -48.2440 -48.2270 -48.2265 -48.2256 -48.2253 -36.0146 -36.0135
   -35.8994 -35.8993 -35.8980 -35.8980 -15.2943 -15.2908 -14.4761 -14.4746
    -6.4373  -6.4343  -3.3608  -3.3608  -3.3547  -3.3546  -3.3364  -3.3360
    -1.5902  -1.5887  -1.0644  -1.0644  -1.0615  -1.0615   0.2288   0.2288
     0.2316   0.2316   2.9473   2.9474   2.9494   2.9495   3.1410

          k = 0.0000 0.0722 0.0000 ( 37755 PWs)   bands (ev):

   -61.8952 -61.8943 -48.2912 -48.2911 -48.2909 -48.2907 -48.2897 -48.2895
   -48.2895 -48.2893 -48.2457 -48.2457 -48.2454 -48.2453 -48.2442 -48.2442
   -48.2441 -48.2440 -48.2269 -48.2264 -48.2255 -48.2252 -36.0124 -36.0113
   -35.9100 -35.9086 -35.9018 -35.9005 -15.2375 -15.2340 -14.4466 -14.4451
    -6.3596  -6.3566  -3.8332  -3.8294  -3.3288  -3.3227  -2.9332  -2.9311
    -1.6282  -1.6273  -1.2541  -1.2512  -1.2114  -1.2083   0.1212   0.1234
     0.3419   0.3443   2.6239   2.6302   2.8987   2.9008   3.2477

          k = 0.0000 0.1443 0.0000 ( 37697 PWs)   bands (ev):

   -61.8925 -61.8916 -48.2912 -48.2909 -48.2905 -48.2902 -48.2896 -48.2895
   -48.2890 -48.2888 -48.2460 -48.2458 -48.2455 -48.2454 -48.2445 -48.2443
   -48.2442 -48.2440 -48.2267 -48.2262 -48.2252 -48.2249 -36.0060 -36.0049
   -35.9401 -35.9388 -35.9087 -35.9074 -15.0711 -15.0677 -14.3605 -14.3588
    -6.1343  -6.1313  -4.3190  -4.3147  -3.2535  -3.2474  -2.7138  -2.7123
    -2.0774  -2.0752  -1.4989  -1.4955  -1.4557  -1.4551   0.0028   0.0041
     0.5324   0.5343   2.0304   2.0361   2.7990   2.8009   3.5045

          k = 0.0000 0.2165 0.0000 ( 37653 PWs)   bands (ev):

   -61.8884 -61.8875 -48.2912 -48.2909 -48.2897 -48.2896 -48.2895 -48.2894
   -48.2882 -48.2880 -48.2463 -48.2459 -48.2457 -48.2454 -48.2448 -48.2445
   -48.2443 -48.2441 -48.2263 -48.2258 -48.2248 -48.2245 -35.9968 -35.9957
   -35.9845 -35.9832 -35.9191 -35.9178 -14.8082 -14.8049 -14.2241 -14.2222
    -5.7937  -5.7906  -4.7485  -4.7439  -3.2578  -3.2548  -3.2018  -3.1959
    -2.4348  -2.4341  -1.7226  -1.7189  -1.5566  -1.5562  -0.0282  -0.0274
     0.6389   0.6402   1.6690   1.6743   2.7336   2.7353   3.8747

          k = 0.0000 0.2887 0.0000 ( 37721 PWs)   bands (ev):

   -61.8835 -61.8826 -48.2912 -48.2909 -48.2897 -48.2894 -48.2888 -48.2885
   -48.2873 -48.2871 -48.2467 -48.2461 -48.2458 -48.2455 -48.2453 -48.2446
   -48.2445 -48.2441 -48.2258 -48.2253 -48.2244 -48.2241 -36.0376 -36.0362
   -35.9848 -35.9838 -35.9313 -35.9299 -14.4750 -14.4718 -14.0462 -14.0440
    -5.4822  -5.4787  -4.9884  -4.9844  -4.2798  -4.2764  -3.2562  -3.2506
    -2.6203  -2.6201  -1.8097  -1.8091  -1.7662  -1.7622   0.0531   0.0539
     0.6439   0.6450   1.7757   1.7811   2.7348   2.7366   4.3505

          k = 0.0000 0.3608 0.0000 ( 37749 PWs)   bands (ev):

   -61.8787 -61.8778 -48.2912 -48.2908 -48.2897 -48.2893 -48.2879 -48.2876
   -48.2864 -48.2862 -48.2471 -48.2462 -48.2460 -48.2457 -48.2455 -48.2448
   -48.2446 -48.2442 -48.2254 -48.2249 -48.2239 -48.2236 -36.0896 -36.0881
   -35.9735 -35.9725 -35.9434 -35.9421 -14.1267 -14.1235 -13.8268 -13.8243
    -5.5991  -5.5948  -5.2372  -5.2341  -4.7242  -4.7211  -3.4048  -3.3994
    -2.9804  -2.9803  -2.0750  -2.0743  -1.6610  -1.6570   0.3127   0.3133
     0.6209   0.6221   2.1946   2.1999   2.7713   2.7734   4.9043

          k = 0.0000 0.4330 0.0000 ( 37785 PWs)   bands (ev):

   -61.8745 -61.8737 -48.2913 -48.2907 -48.2898 -48.2892 -48.2872 -48.2869
   -48.2856 -48.2855 -48.2475 -48.2464 -48.2461 -48.2460 -48.2456 -48.2449
   -48.2448 -48.2442 -48.2250 -48.2245 -48.2235 -48.2233 -36.1333 -36.1319
   -35.9639 -35.9629 -35.9537 -35.9524 -13.8628 -13.8595 -13.5479 -13.5453
    -6.1995  -6.1957  -5.5771  -5.5739  -4.5345  -4.5320  -3.5640  -3.5587
    -3.2348  -3.2341  -2.2485  -2.2478  -1.5273  -1.5237   0.6354   0.6371
     0.6777   0.6780   2.7106   2.7151   2.8078   2.8101   5.1556

          k = 0.0000 0.5052 0.0000 ( 37822 PWs)   bands (ev):

   -61.8718 -61.8709 -48.2913 -48.2906 -48.2898 -48.2891 -48.2866 -48.2864
   -48.2851 -48.2849 -48.2477 -48.2464 -48.2463 -48.2462 -48.2457 -48.2450
   -48.2449 -48.2443 -48.2247 -48.2242 -48.2233 -48.2230 -36.1624 -36.1609
   -35.9606 -35.9592 -35.9574 -35.9565 -13.7176 -13.7141 -13.2860 -13.2835
    -6.7570  -6.7532  -5.5983  -5.5959  -4.7016  -4.6992  -3.6760  -3.6708
    -3.1148  -3.1134  -2.3766  -2.3761  -1.4401  -1.4369   0.6846   0.6868
     1.0190   1.0192   2.8303   2.8328   3.1583   3.1615   4.6756

          k = 0.0000-0.5774 0.0000 ( 37832 PWs)   bands (ev):

   -61.8708 -61.8699 -48.2914 -48.2906 -48.2899 -48.2891 -48.2865 -48.2862
   -48.2849 -48.2848 -48.2478 -48.2465 -48.2464 -48.2463 -48.2457 -48.2450
   -48.2449 -48.2443 -48.2246 -48.2241 -48.2232 -48.2229 -36.1725 -36.1711
   -35.9630 -35.9616 -35.9552 -35.9542 -13.6701 -13.6665 -13.1794 -13.1770
    -6.9623  -6.9584  -5.5687  -5.5668  -4.8444  -4.8418  -3.7157  -3.7105
    -2.9862  -2.9846  -2.4451  -2.4446  -1.4124  -1.4093   0.7121   0.7145
     1.1659   1.1660   2.8376   2.8402   3.3788   3.3810   4.3497

          k = 0.0625 0.1083 0.0000 ( 37709 PWs)   bands (ev):

   -61.8934 -61.8925 -48.2912 -48.2909 -48.2907 -48.2904 -48.2896 -48.2895
   -48.2892 -48.2890 -48.2459 -48.2458 -48.2454 -48.2454 -48.2444 -48.2443
   -48.2441 -48.2441 -48.2267 -48.2262 -48.2253 -48.2250 -36.0081 -36.0070
   -35.9300 -35.9287 -35.9068 -35.9055 -15.1259 -15.1225 -14.3888 -14.3872
    -6.2076  -6.2046  -4.1901  -4.1858  -3.2823  -3.2762  -2.7342  -2.7326
    -1.8765  -1.8749  -1.4991  -1.4957  -1.3805  -1.3794   0.0633   0.0648
     0.4322   0.4341   2.2579   2.2642   2.7549   2.7569   3.4264

          k = 0.0625 0.1804 0.0000 ( 37703 PWs)   bands (ev):

   -61.8900 -61.8891 -48.2912 -48.2909 -48.2901 -48.2898 -48.2896 -48.2895
   -48.2885 -48.2883 -48.2462 -48.2459 -48.2456 -48.2454 -48.2447 -48.2444
   -48.2442 -48.2441 -48.2264 -48.2259 -48.2250 -48.2247 -36.0001 -35.9991
   -35.9666 -35.9653 -35.9163 -35.9149 -14.9108 -14.9075 -14.2777 -14.2759
    -5.9197  -5.9167  -4.6038  -4.5993  -3.2766  -3.2708  -2.8109  -2.8088
    -2.4536  -2.4515  -1.7538  -1.7507  -1.4123  -1.4118   0.0628   0.0638
     0.4328   0.4340   1.9383   1.9439   2.5810   2.5828   3.7350

          k = 0.0625 0.2526 0.0000 ( 37702 PWs)   bands (ev):

   -61.8855 -61.8846 -48.2911 -48.2908 -48.2896 -48.2894 -48.2893 -48.2889
   -48.2877 -48.2875 -48.2465 -48.2460 -48.2457 -48.2455 -48.2451 -48.2445
   -48.2444 -48.2442 -48.2260 -48.2255 -48.2246 -48.2243 -36.0144 -36.0130
   -35.9894 -35.9884 -35.9286 -35.9273 -14.6107 -14.6074 -14.1217 -14.1196
    -5.5522  -5.5490  -4.9480  -4.9435  -3.8357  -3.8320  -3.2224  -3.2177
    -2.5994  -2.5979  -1.9637  -1.9614  -1.4438  -1.4426  -0.0011  -0.0005
     0.5129   0.5138   1.8309   1.8355   2.5522   2.5543   4.1567

          k = 0.0625 0.3248 0.0000 ( 37734 PWs)   bands (ev):

   -61.8806 -61.8797 -48.2911 -48.2907 -48.2896 -48.2893 -48.2884 -48.2881
   -48.2868 -48.2866 -48.2469 -48.2462 -48.2459 -48.2456 -48.2455 -48.2447
   -48.2445 -48.2442 -48.2256 -48.2251 -48.2241 -48.2238 -36.0653 -36.0639
   -35.9782 -35.9772 -35.9420 -35.9407 -14.2623 -14.2591 -13.9281 -13.9257
    -5.4452  -5.4410  -4.9242  -4.9212  -4.7799  -4.7762  -3.4619  -3.4574
    -2.7250  -2.7238  -2.2788  -2.2766  -1.4337  -1.4317   0.0495   0.0500
     0.6615   0.6623   1.9675   1.9713   2.6449   2.6479   4.6790

          k = 0.0625 0.3969 0.0000 ( 37770 PWs)   bands (ev):

   -61.8761 -61.8752 -48.2912 -48.2906 -48.2896 -48.2892 -48.2876 -48.2873
   -48.2860 -48.2858 -48.2473 -48.2463 -48.2460 -48.2459 -48.2456 -48.2449
   -48.2446 -48.2443 -48.2251 -48.2246 -48.2237 -48.2234 -36.1120 -36.1106
   -35.9678 -35.9668 -35.9543 -35.9530 -13.9461 -13.9429 -13.6839 -13.6813
    -5.8153  -5.8113  -5.4810  -5.4776  -4.5587  -4.5558  -3.7070  -3.7029
    -2.9891  -2.9877  -2.4969  -2.4948  -1.3658  -1.3635   0.2464   0.2468
     0.8185   0.8194   2.2545   2.2570   2.8173   2.8212   5.2282

          k = 0.0625 0.4691 0.0000 ( 37798 PWs)   bands (ev):

   -61.8727 -61.8718 -48.2912 -48.2905 -48.2897 -48.2890 -48.2869 -48.2866
   -48.2854 -48.2852 -48.2476 -48.2465 -48.2462 -48.2461 -48.2457 -48.2451
   -48.2447 -48.2443 -48.2248 -48.2243 -48.2234 -48.2231 -36.1476 -36.1461
   -35.9641 -35.9628 -35.9593 -35.9584 -13.7487 -13.7452 -13.3983 -13.3957
    -6.4703  -6.4665  -5.5874  -5.5844  -4.5531  -4.5508  -3.8008  -3.7964
    -3.1041  -3.1024  -2.6022  -2.6006  -1.3259  -1.3236   0.4879   0.4891
     1.0007   1.0015   2.4791   2.4811   3.0747   3.0784   5.1455

          k = 0.0625 0.5413 0.0000 ( 37791 PWs)   bands (ev):

   -61.8708 -61.8699 -48.2912 -48.2905 -48.2897 -48.2890 -48.2866 -48.2863
   -48.2850 -48.2849 -48.2477 -48.2466 -48.2463 -48.2461 -48.2457 -48.2451
   -48.2447 -48.2444 -48.2246 -48.2241 -48.2232 -48.2229 -36.1667 -36.1652
   -35.9690 -35.9677 -35.9552 -35.9542 -13.6555 -13.6519 -13.2031 -13.2006
    -6.8571  -6.8533  -5.5698  -5.5675  -4.7630  -4.7604  -3.8183  -3.8136
    -2.9910  -2.9892  -2.6745  -2.6731  -1.3270  -1.3248   0.6679   0.6700
     1.1305   1.1309   2.5763   2.5785   3.3184   3.3208   4.6467

          k = 0.1250 0.2165 0.0000 ( 37731 PWs)   bands (ev):

   -61.8862 -61.8853 -48.2911 -48.2908 -48.2895 -48.2895 -48.2894 -48.2891
   -48.2879 -48.2877 -48.2465 -48.2459 -48.2457 -48.2455 -48.2451 -48.2445
   -48.2443 -48.2442 -48.2261 -48.2256 -48.2246 -48.2243 -36.0045 -36.0031
   -35.9913 -35.9903 -35.9292 -35.9279 -14.6572 -14.6540 -14.1475 -14.1455
    -5.5829  -5.5799  -4.9157  -4.9110  -3.6940  -3.6895  -3.0093  -3.0072
    -2.8639  -2.8597  -1.9315  -1.9295  -1.3223  -1.3216   0.0532   0.0537
     0.3142   0.3151   2.1635   2.1699   2.1851   2.1866   4.0938

          k = 0.1250 0.2887 0.0000 ( 37723 PWs)   bands (ev):

   -61.8817 -61.8808 -48.2910 -48.2906 -48.2894 -48.2891 -48.2887 -48.2884
   -48.2871 -48.2870 -48.2469 -48.2461 -48.2458 -48.2457 -48.2454 -48.2446
   -48.2445 -48.2443 -48.2257 -48.2252 -48.2242 -48.2239 -36.0481 -36.0467
   -35.9810 -35.9799 -35.9452 -35.9438 -14.3348 -14.3316 -13.9803 -13.9780
    -5.2691  -5.2652  -5.0800  -5.0764  -4.4619  -4.4581  -3.4618  -3.4587
    -2.9536  -2.9499  -2.1994  -2.1980  -1.1958  -1.1947  -0.1594  -0.1590
     0.6069   0.6076   1.8738   1.8750   2.4743   2.4806   4.5652

          k = 0.1250 0.3608 0.0000 ( 37761 PWs)   bands (ev):

   -61.8772 -61.8763 -48.2909 -48.2904 -48.2894 -48.2889 -48.2880 -48.2877
   -48.2864 -48.2862 -48.2472 -48.2463 -48.2460 -48.2458 -48.2457 -48.2448
   -48.2445 -48.2444 -48.2252 -48.2247 -48.2238 -48.2235 -36.0910 -36.0895
   -35.9711 -35.9701 -35.9609 -35.9596 -13.9946 -13.9915 -13.7794 -13.7767
    -5.4721  -5.4677  -5.2618  -5.2583  -4.6658  -4.6628  -3.8498  -3.8465
    -3.0529  -3.0498  -2.6296  -2.6282  -1.0650  -1.0636  -0.1241  -0.1239
     0.8894   0.8902   1.7919   1.7931   2.7840   2.7896   5.1254

          k = 0.1250 0.4330 0.0000 ( 37768 PWs)   bands (ev):

   -61.8734 -61.8725 -48.2908 -48.2902 -48.2893 -48.2887 -48.2874 -48.2871
   -48.2858 -48.2856 -48.2474 -48.2465 -48.2460 -48.2460 -48.2458 -48.2451
   -48.2446 -48.2445 -48.2249 -48.2244 -48.2234 -48.2232 -36.1270 -36.1255
   -35.9762 -35.9749 -35.9609 -35.9599 -13.7447 -13.7414 -13.5162 -13.5135
    -6.0617  -6.0579  -5.5208  -5.5173  -4.3951  -4.3925  -4.0770  -4.0734
    -3.1644  -3.1618  -2.9782  -2.9765  -1.0330  -1.0317   0.1193   0.1198
     1.0796   1.0807   1.9017   1.9030   3.0643   3.0683   5.5601

          k = 0.1250 0.5052 0.0000 ( 37794 PWs)   bands (ev):

   -61.8708 -61.8699 -48.2908 -48.2901 -48.2893 -48.2886 -48.2869 -48.2867
   -48.2854 -48.2853 -48.2476 -48.2467 -48.2462 -48.2460 -48.2458 -48.2453
   -48.2446 -48.2445 -48.2247 -48.2242 -48.2232 -48.2229 -36.1509 -36.1494
   -35.9853 -35.9840 -35.9552 -35.9542 -13.6128 -13.6093 -13.2673 -13.2646
    -6.5649  -6.5612  -5.5540  -5.5512  -4.5678  -4.5652  -4.0287  -4.0249
    -3.2458  -3.2435  -3.0422  -3.0403  -1.0902  -1.0892   0.4570   0.4582
     1.1289   1.1300   2.0683   2.0699   3.2520   3.2548   5.2783

          k = 0.1250 0.5774 0.0000 ( 37780 PWs)   bands (ev):

   -61.8699 -61.8690 -48.2908 -48.2901 -48.2893 -48.2886 -48.2868 -48.2865
   -48.2852 -48.2851 -48.2477 -48.2468 -48.2463 -48.2460 -48.2458 -48.2453
   -48.2446 -48.2445 -48.2246 -48.2241 -48.2231 -48.2228 -36.1592 -36.1578
   -35.9886 -35.9872 -35.9532 -35.9522 -13.5691 -13.5656 -13.1679 -13.1653
    -6.7485  -6.7447  -5.5460  -5.5435  -4.6824  -4.6797  -4.0252  -4.0212
    -3.2750  -3.2728  -2.9968  -2.9949  -1.1292  -1.1283   0.6585   0.6603
     1.0805   1.0813   2.1513   2.1530   3.3170   3.3191   5.0247

          k = 0.1875 0.3248 0.0000 ( 37725 PWs)   bands (ev):

   -61.8775 -61.8767 -48.2908 -48.2903 -48.2892 -48.2888 -48.2882 -48.2878
   -48.2866 -48.2864 -48.2472 -48.2462 -48.2460 -48.2458 -48.2457 -48.2447
   -48.2446 -48.2445 -48.2253 -48.2248 -48.2238 -48.2236 -36.0814 -36.0800
   -35.9732 -35.9721 -35.9645 -35.9632 -14.0100 -14.0069 -13.8140 -13.8114
    -5.3397  -5.3353  -5.0931  -5.0894  -4.7548  -4.7519  -3.8528  -3.8503
    -3.3337  -3.3297  -2.5103  -2.5091  -0.8965  -0.8953  -0.3040  -0.3037
     0.8878   0.8884   1.6050   1.6057   2.7731   2.7792   5.0811

          k = 0.1875 0.3969 0.0000 ( 37753 PWs)   bands (ev):

   -61.8737 -61.8729 -48.2905 -48.2899 -48.2890 -48.2885 -48.2877 -48.2874
   -48.2862 -48.2860 -48.2474 -48.2464 -48.2461 -48.2460 -48.2458 -48.2450
   -48.2447 -48.2445 -48.2249 -48.2244 -48.2235 -48.2232 -36.1102 -36.1087
   -35.9885 -35.9872 -35.9617 -35.9607 -13.7070 -13.7039 -13.6166 -13.6138
    -5.6928  -5.6890  -5.4435  -5.4395  -4.3542  -4.3515  -4.2048  -4.2021
    -3.6594  -3.6559  -2.9091  -2.9078  -0.6902  -0.6893  -0.2360  -0.2358
     1.1091   1.1099   1.5244   1.5250   3.0664   3.0708   5.6469

          k = 0.1875 0.4691 0.0000 ( 37759 PWs)   bands (ev):

   -61.8708 -61.8699 -48.2903 -48.2896 -48.2888 -48.2882 -48.2874 -48.2871
   -48.2858 -48.2857 -48.2475 -48.2467 -48.2462 -48.2461 -48.2458 -48.2453
   -48.2448 -48.2445 -48.2246 -48.2242 -48.2232 -48.2229 -36.1311 -36.1296
   -36.0056 -36.0042 -35.9552 -35.9542 -13.5466 -13.5433 -13.3543 -13.3515
    -6.1771  -6.1734  -5.5108  -5.5072  -4.4268  -4.4238  -4.1181  -4.1153
    -3.8849  -3.8821  -3.1791  -3.1775  -0.7417  -0.7413   0.1057   0.1063
     1.1491   1.1503   1.6753   1.6761   3.2311   3.2340   5.7778

          k = 0.1875 0.5413 0.0000 ( 37793 PWs)   bands (ev):

   -61.8692 -61.8684 -48.2902 -48.2895 -48.2887 -48.2880 -48.2872 -48.2869
   -48.2856 -48.2855 -48.2475 -48.2469 -48.2462 -48.2461 -48.2458 -48.2455
   -48.2448 -48.2445 -48.2245 -48.2240 -48.2230 -48.2228 -36.1420 -36.1406
   -36.0152 -36.0139 -35.9516 -35.9506 -13.4691 -13.4656 -13.1848 -13.1820
    -6.4544  -6.4507  -5.5393  -5.5361  -4.5203  -4.5173  -4.1608  -4.1578
    -3.9597  -3.9574  -3.2003  -3.1984  -0.8296  -0.8293   0.4725   0.4733
     1.0016   1.0029   1.8860   1.8871   3.2273   3.2295   5.6564

          k = 0.2500 0.4330 0.0000 ( 37711 PWs)   bands (ev):

   -61.8708 -61.8699 -48.2901 -48.2894 -48.2885 -48.2879 -48.2876 -48.2873
   -48.2860 -48.2858 -48.2475 -48.2466 -48.2463 -48.2460 -48.2458 -48.2451
   -48.2450 -48.2444 -48.2246 -48.2242 -48.2232 -48.2230 -36.1207 -36.1192
   -36.0162 -36.0148 -35.9552 -35.9542 -13.4848 -13.4816 -13.4247 -13.4217
    -5.9566  -5.9529  -5.4792  -5.4753  -4.4083  -4.4058  -4.2482  -4.2450
    -4.0438  -4.0409  -3.2748  -3.2735  -0.3308  -0.3304  -0.3101  -0.3090
     1.1446   1.1455   1.5506   1.5509   3.2295   3.2325   5.9875

          k = 0.2500 0.5052 0.0000 ( 37776 PWs)   bands (ev):

   -61.8689 -61.8680 -48.2897 -48.2890 -48.2882 -48.2876 -48.2875 -48.2873
   -48.2861 -48.2859 -48.2474 -48.2468 -48.2465 -48.2460 -48.2458 -48.2454
   -48.2451 -48.2444 -48.2245 -48.2240 -48.2230 -48.2228 -36.1232 -36.1217
   -36.0393 -36.0379 -35.9508 -35.9498 -13.3751 -13.3718 -13.2377 -13.2347
    -6.1043  -6.1007  -5.5310  -5.5272  -4.6677  -4.6641  -4.3855  -4.3833
    -3.9699  -3.9677  -3.5127  -3.5111  -0.4332  -0.4331   0.0625   0.0630
     0.9648   0.9661   1.8421   1.8426   3.1573   3.1595   5.7856

          k = 0.2500 0.5774 0.0000 ( 37791 PWs)   bands (ev):

   -61.8682 -61.8673 -48.2895 -48.2888 -48.2880 -48.2877 -48.2874 -48.2873
   -48.2861 -48.2859 -48.2474 -48.2470 -48.2465 -48.2459 -48.2457 -48.2456
   -48.2451 -48.2444 -48.2244 -48.2240 -48.2229 -48.2228 -36.1226 -36.1212
   -36.0488 -36.0474 -35.9492 -35.9483 -13.3365 -13.3331 -13.1678 -13.1648
    -6.1472  -6.1436  -5.5612  -5.5574  -4.8206  -4.8171  -4.2058  -4.2036
    -4.1862  -4.1843  -3.5135  -3.5117  -0.4840  -0.4840   0.3212   0.3212
     0.7575   0.7594   2.0609   2.0617   3.0203   3.0221   5.6855

          k = 0.3125 0.5413 0.0000 ( 37789 PWs)   bands (ev):

   -61.8678 -61.8669 -48.2891 -48.2884 -48.2880 -48.2877 -48.2876 -48.2869
   -48.2865 -48.2862 -48.2472 -48.2470 -48.2467 -48.2458 -48.2457 -48.2455
   -48.2454 -48.2443 -48.2244 -48.2239 -48.2229 -48.2227 -36.1051 -36.1037
   -36.0713 -36.0699 -35.9484 -35.9474 -13.2571 -13.2537 -13.1952 -13.1922
    -5.8430  -5.8394  -5.5709  -5.5669  -5.2602  -5.2568  -4.2188  -4.2170
    -3.8807  -3.8788  -3.8783  -3.8773  -0.1467  -0.1461   0.0307   0.0309
     0.6579   0.6600   2.2688   2.2697   2.8331   2.8347   5.6178

     the Fermi energy is    -0.2957 ev

!    total energy              =   -2326.92174255 Ry
     total all-electron energy =    -35628.669571 Ry
     estimated scf accuracy    <          5.3E-09 Ry
     smearing contrib. (-TS)   =       0.00090280 Ry
     internal energy E=F+TS    =   -2326.92264535 Ry

     The total energy is F=E-TS. E is the sum of the following terms:
     one-electron contribution =  -17351.40522078 Ry
     hartree contribution      =    8663.93426232 Ry
     xc contribution           =    -152.42424070 Ry
     ewald contribution        =    7523.48708958 Ry
     one-center paw contrib.   =   -1010.51453577 Ry

     convergence has been achieved in  24 iterations

     Writing all to output data dir ./tmp/cleave_033/mose2_cleave_033.save/ :
     XML data file, charge density, pseudopotentials, collected wavefunctions

     init_run     :     11.46s CPU     11.82s WALL (       1 calls)
     electrons    :    459.10s CPU    473.18s WALL (       1 calls)

     Called by init_run:
     wfcinit      :      5.25s CPU      5.36s WALL (       1 calls)
     potinit      :      5.52s CPU      5.69s WALL (       1 calls)
     hinit0       :      0.06s CPU      0.06s WALL (       1 calls)

     Called by electrons:
     c_bands      :    382.09s CPU    390.74s WALL (      25 calls)
     sum_band     :     50.43s CPU     53.18s WALL (      25 calls)
     v_of_rho     :     15.02s CPU     15.95s WALL (      25 calls)
     newd         :      9.78s CPU     11.58s WALL (      25 calls)
     PAW_pot      :      1.55s CPU      1.61s WALL (      25 calls)
     mix_rho      :      5.93s CPU      6.03s WALL (      25 calls)
     vdW_kernel   :      5.07s CPU      5.19s WALL (       1 calls)

     Called by c_bands:
     init_us_2    :      1.83s CPU      1.85s WALL (    1530 calls)
     cegterg      :    369.99s CPU    378.28s WALL (     750 calls)

     Called by *egterg:
     cdiaghg      :      9.64s CPU      9.65s WALL (    3892 calls)
     h_psi        :    141.46s CPU    143.64s WALL (    3952 calls)
     s_psi        :     17.16s CPU     17.17s WALL (    3952 calls)
     g_psi        :      0.21s CPU      0.21s WALL (    3172 calls)

     Called by h_psi:
     h_psi:calbec :     48.46s CPU     49.78s WALL (    3952 calls)
     vloc_psi     :     74.39s CPU     75.22s WALL (    3952 calls)
                                        0.00s GPU  (    3952 calls)
     add_vuspsi   :     18.34s CPU     18.37s WALL (    3952 calls)

     General routines
     calbec       :     69.09s CPU     71.00s WALL (    4702 calls)
     fft          :      7.61s CPU      7.83s WALL (    1574 calls)
     ffts         :      2.30s CPU      2.33s WALL (    2879 calls)
     fftw         :     88.66s CPU     89.65s WALL (  226880 calls)
     interpolate  :      0.12s CPU      0.12s WALL (      25 calls)

     Parallel routines

     PWSCF        :   7m51.15s CPU   8m 5.83s WALL


   This run was terminated on:  13:12:24  20Jun2026            

=------------------------------------------------------------------------------=
   JOB DONE.
=------------------------------------------------------------------------------=
Note: The following floating-point exceptions are signalling: IEEE_UNDERFLOW_FLAG IEEE_DENORMAL
Note: The following floating-point exceptions are signalling: IEEE_UNDERFLOW_FLAG IEEE_DENORMAL
Note: The following floating-point exceptions are signalling: IEEE_UNDERFLOW_FLAG IEEE_DENORMAL
Note: The following floating-point exceptions are signalling: IEEE_UNDERFLOW_FLAG IEEE_DENORMAL
Note: The following floating-point exceptions are signalling: IEEE_UNDERFLOW_FLAG IEEE_DENORMAL
Note: The following floating-point exceptions are signalling: IEEE_UNDERFLOW_FLAG IEEE_DENORMAL
Note: The following floating-point exceptions are signalling: IEEE_UNDERFLOW_FLAG IEEE_DENORMAL
Note: The following floating-point exceptions are signalling: IEEE_UNDERFLOW_FLAG IEEE_DENORMAL
Note: The following floating-point exceptions are signalling: IEEE_UNDERFLOW_FLAG IEEE_DENORMAL
Note: The following floating-point exceptions are signalling: IEEE_UNDERFLOW_FLAG IEEE_DENORMAL
Note: The following floating-point exceptions are signalling: IEEE_UNDERFLOW_FLAG IEEE_DENORMAL
Note: The following floating-point exceptions are signalling: IEEE_UNDERFLOW_FLAG IEEE_DENORMAL
Note: The following floating-point exceptions are signalling: IEEE_UNDERFLOW_FLAG IEEE_DENORMAL
Note: The following floating-point exceptions are signalling: IEEE_UNDERFLOW_FLAG IEEE_DENORMAL
Note: The following floating-point exceptions are signalling: IEEE_UNDERFLOW_FLAG IEEE_DENORMAL
Note: The following floating-point exceptions are signalling: IEEE_UNDERFLOW_FLAG IEEE_DENORMAL
Note: The following floating-point exceptions are signalling: IEEE_UNDERFLOW_FLAG IEEE_DENORMAL
Note: The following floating-point exceptions are signalling: IEEE_UNDERFLOW_FLAG IEEE_DENORMAL
Note: The following floating-point exceptions are signalling: IEEE_UNDERFLOW_FLAG IEEE_DENORMAL
Note: The following floating-point exceptions are signalling: IEEE_UNDERFLOW_FLAG IEEE_DENORMAL
Note: The following floating-point exceptions are signalling: IEEE_UNDERFLOW_FLAG IEEE_DENORMAL
Note: The following floating-point exceptions are signalling: IEEE_UNDERFLOW_FLAG IEEE_DENORMAL
Note: The following floating-point exceptions are signalling: IEEE_UNDERFLOW_FLAG IEEE_DENORMAL
Note: The following floating-point exceptions are signalling: IEEE_UNDERFLOW_FLAG IEEE_DENORMAL
