
     Program PWSCF v.7.5 starts on 20Jun2026 at 10:52:13 

     This program is part of the open-source Quantum ESPRESSO suite
     for quantum simulation of materials; please cite
         "P. Giannozzi et al., J. Phys.:Condens. Matter 21 395502 (2009);
         "P. Giannozzi et al., J. Phys.:Condens. Matter 29 465901 (2017);
         "P. Giannozzi et al., J. Chem. Phys. 152 154105 (2020);
          URL http://www.quantum-espresso.org", 
     in publications or presentations arising from this work. More details at
     http://www.quantum-espresso.org/quote

     Parallel version (MPI), running on    24 processors

     MPI processes distributed on     1 nodes
     6740 MiB available memory on the printing compute node when the environment starts

     Waiting for input...
     Reading input from standard input

     Current dimensions of program PWSCF are:
     Max number of different atomic species (ntypx) = 10
     Max number of k-points (npk) =  40000
     Max angular momentum in pseudopotentials (lmaxx) =  4
     file Mo.pbe-spn-kjpaw_psl.1.0.0.UPF: wavefunction(s)  4S 4D renormalized
     file Se.pbe-dn-kjpaw_psl.1.0.0.UPF: wavefunction(s)  4S 4P 3D renormalized

     IMPORTANT: XC functional enforced from input :
     Exchange-correlation= VDW-DF2-B86R
                           (   1   4  26   0   2   0   0)
     Any further DFT definition will be discarded
     Please, verify this is what you really want


     R & G space division:  proc/nbgrp/npool/nimage =      24
     Subspace diagonalization in iterative solution of the eigenvalue problem:
     a serial algorithm will be used


     Parallelization info
     --------------------
     sticks:   dense  smooth     PW     G-vecs:    dense   smooth      PW
     Min          69      35     10                35537    12585    1924
     Max          70      36     11                35620    12648    1981
     Sum        1675     847    241               853823   302525   46513

     Using Slab Decomposition



     bravais-lattice index     =            4
     lattice parameter (alat)  =       6.1794  a.u.
     unit-cell volume          =    3124.5879 (a.u.)^3
     number of atoms/cell      =            6
     number of atomic types    =            2
     number of electrons       =        92.00
     number of Kohn-Sham states=           55
     kinetic-energy cutoff     =      80.0000  Ry
     charge density cutoff     =     640.0000  Ry
     scf convergence threshold =      1.0E-08
     mixing beta               =       0.3000
     number of iterations used =            8  local-TF  mixing
     Exchange-correlation= VDW-DF2-B86R
                           (   1   4  26   0   2   0   0)

     celldm(1)=   6.179404  celldm(2)=   0.000000  celldm(3)=  15.290520
     celldm(4)=   0.000000  celldm(5)=   0.000000  celldm(6)=   0.000000

     crystal axes: (cart. coord. in units of alat)
               a(1) = (   1.000000   0.000000   0.000000 )  
               a(2) = (  -0.500000   0.866025   0.000000 )  
               a(3) = (   0.000000   0.000000  15.290520 )  

     reciprocal axes: (cart. coord. in units 2 pi/alat)
               b(1) = (  1.000000  0.577350 -0.000000 )  
               b(2) = (  0.000000  1.154701  0.000000 )  
               b(3) = (  0.000000 -0.000000  0.065400 )  


     PseudoPot. # 1 for Mo read from file:
     ./pseudo/Mo.pbe-spn-kjpaw_psl.1.0.0.UPF
     MD5 check sum: 4396e0c640fcce5c25f020efccf1ab12
     Pseudo is Projector augmented-wave + core cor, Zval = 14.0
     Generated using &quot;atomic&quot; code by A. Dal Corso  v.6.3
     Shape of augmentation charge: PSQ
     Using radial grid of 1229 points,  6 beta functions with: 
                l(1) =   0
                l(2) =   0
                l(3) =   1
                l(4) =   1
                l(5) =   2
                l(6) =   2
     Q(r) pseudized with 0 coefficients 


     PseudoPot. # 2 for Se read from file:
     ./pseudo/Se.pbe-dn-kjpaw_psl.1.0.0.UPF
     MD5 check sum: ac240dd2bae32a30e0bf3a38df9c8785
     Pseudo is Projector augmented-wave + core cor, Zval = 16.0
     Generated using &quot;atomic&quot; code by A. Dal Corso  v.6.3
     Shape of augmentation charge: PSQ
     Using radial grid of 1211 points,  6 beta functions with: 
                l(1) =   0
                l(2) =   0
                l(3) =   1
                l(4) =   1
                l(5) =   2
                l(6) =   2
     Q(r) pseudized with 0 coefficients 


     atomic species   valence    mass     pseudopotential
     Mo               14.00    95.96000     Mo( 1.00)
     Se               16.00    78.96000     Se( 1.00)

      6 Sym. Ops. (no inversion) found



   Cartesian axes

     site n.     atom                  positions (alat units)
         1        Se     tau(   1) = (  -0.0000005   0.5773506   6.1238532  )
         2        Mo     tau(   2) = (   0.0000000   0.0000000   6.6502752  )
         3        Se     tau(   3) = (   0.5000005   0.2886748   7.1775994  )
         4        Se     tau(   4) = (  -0.0000005   0.5773506   9.0909327  )
         5        Mo     tau(   5) = (   0.5000005   0.2886748   9.6181193  )
         6        Se     tau(   6) = (   0.0000000   0.0000000  10.1452599  )

     number of k points=    30  Methfessel-Paxton smearing, width (Ry)=  0.0200
                       cart. coord. in units 2pi/alat
        k(    1) = (   0.0000000   0.0000000   0.0000000), wk =   0.0078125
        k(    2) = (   0.0000000   0.0721688   0.0000000), wk =   0.0468750
        k(    3) = (   0.0000000   0.1443376   0.0000000), wk =   0.0468750
        k(    4) = (   0.0000000   0.2165064   0.0000000), wk =   0.0468750
        k(    5) = (   0.0000000   0.2886751   0.0000000), wk =   0.0468750
        k(    6) = (   0.0000000   0.3608439   0.0000000), wk =   0.0468750
        k(    7) = (   0.0000000   0.4330127   0.0000000), wk =   0.0468750
        k(    8) = (   0.0000000   0.5051815   0.0000000), wk =   0.0468750
        k(    9) = (   0.0000000  -0.5773503   0.0000000), wk =   0.0234375
        k(   10) = (   0.0625000   0.1082532   0.0000000), wk =   0.0468750
        k(   11) = (   0.0625000   0.1804220   0.0000000), wk =   0.0937500
        k(   12) = (   0.0625000   0.2525907   0.0000000), wk =   0.0937500
        k(   13) = (   0.0625000   0.3247595   0.0000000), wk =   0.0937500
        k(   14) = (   0.0625000   0.3969283   0.0000000), wk =   0.0937500
        k(   15) = (   0.0625000   0.4690971   0.0000000), wk =   0.0937500
        k(   16) = (   0.0625000   0.5412659   0.0000000), wk =   0.0937500
        k(   17) = (   0.1250000   0.2165064   0.0000000), wk =   0.0468750
        k(   18) = (   0.1250000   0.2886751   0.0000000), wk =   0.0937500
        k(   19) = (   0.1250000   0.3608439   0.0000000), wk =   0.0937500
        k(   20) = (   0.1250000   0.4330127   0.0000000), wk =   0.0937500
        k(   21) = (   0.1250000   0.5051815   0.0000000), wk =   0.0937500
        k(   22) = (   0.1250000   0.5773503   0.0000000), wk =   0.0468750
        k(   23) = (   0.1875000   0.3247595   0.0000000), wk =   0.0468750
        k(   24) = (   0.1875000   0.3969283   0.0000000), wk =   0.0937500
        k(   25) = (   0.1875000   0.4690971   0.0000000), wk =   0.0937500
        k(   26) = (   0.1875000   0.5412659   0.0000000), wk =   0.0937500
        k(   27) = (   0.2500000   0.4330127   0.0000000), wk =   0.0468750
        k(   28) = (   0.2500000   0.5051815   0.0000000), wk =   0.0937500
        k(   29) = (   0.2500000   0.5773503   0.0000000), wk =   0.0468750
        k(   30) = (   0.3125000   0.5412659   0.0000000), wk =   0.0468750

     Dense  grid:   853823 G-vectors     FFT dimensions: (  50,  50, 768)

     Smooth grid:   302525 G-vectors     FFT dimensions: (  36,  36, 540)

     Estimated max dynamical RAM per process >     171.88 MB

     Estimated total dynamical RAM >       4.03 GB

     Initial potential from superposition of free atoms

     starting charge      91.9979, renormalised to      92.0000

     negative rho (up, down):  1.765E-04 0.000E+00


     %%%%%%%%%%%%%%%%%%%%%%%%%%%%%%%%%%%%%%%%%%%%%%%%%%%%%%%%%%%%%%%%%%%%%%%%
     %                                                                      %
     % You are using vdW-DF, which was implemented by the Thonhauser group. %
     % Please cite the following two papers that made this development      %
     % possible and the two reviews that describe the various versions:     %
     %                                                                      %
     %   T. Thonhauser et al., PRL 115, 136402 (2015).                      %
     %   T. Thonhauser et al., PRB 76, 125112 (2007).                       %
     %   K. Berland et al., Rep. Prog. Phys. 78, 066501 (2015).             %
     %   D.C. Langreth et al., J. Phys.: Condens. Matter 21, 084203 (2009). %
     %                                                                      %
     % If you are calculating stress with vdW-DF, please also cite:         %
     %                                                                      %
     %   R. Sabatini et al., J. Phys.: Condens. Matter 24, 424209 (2012).   %
     %                                                                      %
     %%%%%%%%%%%%%%%%%%%%%%%%%%%%%%%%%%%%%%%%%%%%%%%%%%%%%%%%%%%%%%%%%%%%%%%%

     %%%%%%%%%%%%%%%%%%%%%%%%%%%%%%%%%%%%%%%%%%%%%%%%%%%%%%%%%%%%%%%%%%%%%%%%
     %                                                                      %
     %  vdW-DF NEWS:                                                        %
     %                                                                      %
     %  * vdW-DF3 is now available. DOI: 10.1021/acs.jctc.0c00471           %
     %    use with input_dft = 'vdW-DF3-opt1' or 'vdW-DF3-opt2'             %
     %                                                                      %
     %  * Unscreened and range-separated hybrid vdW-DF-cx functionals       %
     %    DOI: 10.1063/1.4986522 and 10.1088/1361-648X/ac2ad2               %
     %    use with input_dft = 'vdW-DF-cx0'    and 'vdW-DF-ahcx'            %
     %  * Unscreened and range-separated hybrid vdW-DF2-b86r functionals    %
     %    DOI: 10.1063/1.4986522 and DOI: 10.1103/PhysRevX.12.041003        %
     %    use with input_dft = 'vdW-DF2-br0' and 'vdW-DF2-ahbr'             %
     %                                                                      %
     %%%%%%%%%%%%%%%%%%%%%%%%%%%%%%%%%%%%%%%%%%%%%%%%%%%%%%%%%%%%%%%%%%%%%%%%


     Starting wfcs are   56 randomized atomic wfcs
     Checking if some PAW data can be deallocated... 

     total cpu time spent up to now is       11.9 secs

     per-process dynamical memory:    79.7 Mb

     Self-consistent Calculation

     iteration #  1     ecut=    80.00 Ry     beta= 0.30
     Davidson diagonalization with overlap
     ethr =  1.00E-02,  avg # of iterations =  4.5

     Threshold (ethr) on eigenvalues was too large:
     Diagonalizing with lowered threshold

     Davidson diagonalization with overlap
     ethr =  4.48E-04,  avg # of iterations =  2.3

     negative rho (up, down):  1.199E-04 0.000E+00

     total cpu time spent up to now is       49.3 secs

     total energy              =   -2326.96429254 Ry
     estimated scf accuracy    <       0.45945276 Ry

     iteration #  2     ecut=    80.00 Ry     beta= 0.30
     Davidson diagonalization with overlap
     ethr =  4.99E-04,  avg # of iterations =  1.0

     negative rho (up, down):  1.286E-04 0.000E+00

     total cpu time spent up to now is       64.5 secs

     total energy              =   -2326.91693587 Ry
     estimated scf accuracy    <       0.24457095 Ry

     iteration #  3     ecut=    80.00 Ry     beta= 0.30
     Davidson diagonalization with overlap
     ethr =  2.66E-04,  avg # of iterations =  2.7

     negative rho (up, down):  2.386E-05 0.000E+00

     total cpu time spent up to now is       82.7 secs

     total energy              =   -2326.92421909 Ry
     estimated scf accuracy    <       0.03104342 Ry

     iteration #  4     ecut=    80.00 Ry     beta= 0.30
     Davidson diagonalization with overlap
     c_bands:  1 eigenvalues not converged
     ethr =  3.37E-05,  avg # of iterations =  8.1

     negative rho (up, down):  7.527E-06 0.000E+00

     total cpu time spent up to now is      104.1 secs

     total energy              =   -2326.92425837 Ry
     estimated scf accuracy    <       0.00953334 Ry

     iteration #  5     ecut=    80.00 Ry     beta= 0.30
     Davidson diagonalization with overlap
     c_bands:  1 eigenvalues not converged
     ethr =  1.04E-05,  avg # of iterations =  5.3

     negative rho (up, down):  4.236E-07 0.000E+00

     total cpu time spent up to now is      124.7 secs

     total energy              =   -2326.92369122 Ry
     estimated scf accuracy    <       0.00359209 Ry

     iteration #  6     ecut=    80.00 Ry     beta= 0.30
     Davidson diagonalization with overlap
     c_bands:  1 eigenvalues not converged
     ethr =  3.90E-06,  avg # of iterations =  9.0

     negative rho (up, down):  2.315E-07 0.000E+00

     total cpu time spent up to now is      146.7 secs

     total energy              =   -2326.92372759 Ry
     estimated scf accuracy    <       0.00132456 Ry

     iteration #  7     ecut=    80.00 Ry     beta= 0.30
     Davidson diagonalization with overlap
     ethr =  1.44E-06,  avg # of iterations =  3.9

     negative rho (up, down):  3.184E-07 0.000E+00

     total cpu time spent up to now is      164.9 secs

     total energy              =   -2326.92360546 Ry
     estimated scf accuracy    <       0.00122714 Ry

     iteration #  8     ecut=    80.00 Ry     beta= 0.30
     Davidson diagonalization with overlap
     ethr =  1.33E-06,  avg # of iterations =  7.0

     negative rho (up, down):  1.357E-07 0.000E+00

     total cpu time spent up to now is      183.8 secs

     total energy              =   -2326.92356852 Ry
     estimated scf accuracy    <       0.00104230 Ry

     iteration #  9     ecut=    80.00 Ry     beta= 0.30
     Davidson diagonalization with overlap
     ethr =  1.13E-06,  avg # of iterations =  1.1

     negative rho (up, down):  5.139E-03 0.000E+00

     total cpu time spent up to now is      200.7 secs

     total energy              =   -2326.92346407 Ry
     estimated scf accuracy    <       0.00080395 Ry

     iteration # 10     ecut=    80.00 Ry     beta= 0.30
     Davidson diagonalization with overlap
     ethr =  8.74E-07,  avg # of iterations =  5.6

     negative rho (up, down):  6.070E-03 0.000E+00

     total cpu time spent up to now is      219.5 secs

     total energy              =   -2326.92336508 Ry
     estimated scf accuracy    <       0.00053562 Ry

     iteration # 11     ecut=    80.00 Ry     beta= 0.30
     Davidson diagonalization with overlap
     ethr =  5.82E-07,  avg # of iterations =  1.8

     negative rho (up, down):  6.084E-03 0.000E+00

     total cpu time spent up to now is      236.7 secs

     total energy              =   -2326.92337896 Ry
     estimated scf accuracy    <       0.00033753 Ry

     iteration # 12     ecut=    80.00 Ry     beta= 0.30
     Davidson diagonalization with overlap
     ethr =  3.67E-07,  avg # of iterations =  4.8

     negative rho (up, down):  4.558E-03 0.000E+00

     total cpu time spent up to now is      255.4 secs

     total energy              =   -2326.92340270 Ry
     estimated scf accuracy    <       0.00020426 Ry

     iteration # 13     ecut=    80.00 Ry     beta= 0.30
     Davidson diagonalization with overlap
     ethr =  2.22E-07,  avg # of iterations =  1.6

     negative rho (up, down):  1.900E-03 0.000E+00

     total cpu time spent up to now is      272.8 secs

     total energy              =   -2326.92336623 Ry
     estimated scf accuracy    <       0.00017319 Ry

     iteration # 14     ecut=    80.00 Ry     beta= 0.30
     Davidson diagonalization with overlap
     ethr =  1.88E-07,  avg # of iterations =  2.5

     negative rho (up, down):  2.380E-03 0.000E+00

     total cpu time spent up to now is      291.0 secs

     total energy              =   -2326.92334019 Ry
     estimated scf accuracy    <       0.00010291 Ry

     iteration # 15     ecut=    80.00 Ry     beta= 0.30
     Davidson diagonalization with overlap
     ethr =  1.12E-07,  avg # of iterations =  1.0

     negative rho (up, down):  2.045E-03 0.000E+00

     total cpu time spent up to now is      306.1 secs

     total energy              =   -2326.92336168 Ry
     estimated scf accuracy    <       0.00007265 Ry

     iteration # 16     ecut=    80.00 Ry     beta= 0.30
     Davidson diagonalization with overlap
     ethr =  7.90E-08,  avg # of iterations =  4.0

     negative rho (up, down):  1.907E-03 0.000E+00

     total cpu time spent up to now is      325.8 secs

     total energy              =   -2326.92338090 Ry
     estimated scf accuracy    <       0.00001599 Ry

     iteration # 17     ecut=    80.00 Ry     beta= 0.30
     Davidson diagonalization with overlap
     ethr =  1.74E-08,  avg # of iterations =  1.6

     negative rho (up, down):  5.437E-04 0.000E+00

     total cpu time spent up to now is      342.5 secs

     total energy              =   -2326.92339122 Ry
     estimated scf accuracy    <       0.00001033 Ry

     iteration # 18     ecut=    80.00 Ry     beta= 0.30
     Davidson diagonalization with overlap
     ethr =  1.12E-08,  avg # of iterations =  2.4

     negative rho (up, down):  4.911E-04 0.000E+00

     total cpu time spent up to now is      363.6 secs

     total energy              =   -2326.92339329 Ry
     estimated scf accuracy    <       0.00000059 Ry

     iteration # 19     ecut=    80.00 Ry     beta= 0.30
     Davidson diagonalization with overlap
     ethr =  6.40E-10,  avg # of iterations =  2.1

     negative rho (up, down):  2.901E-04 0.000E+00

     total cpu time spent up to now is      382.2 secs

     total energy              =   -2326.92339344 Ry
     estimated scf accuracy    <       0.00000032 Ry

     iteration # 20     ecut=    80.00 Ry     beta= 0.30
     Davidson diagonalization with overlap
     ethr =  3.50E-10,  avg # of iterations =  2.3

     negative rho (up, down):  2.692E-04 0.000E+00

     total cpu time spent up to now is      403.3 secs

     total energy              =   -2326.92339348 Ry
     estimated scf accuracy    <       0.00000005 Ry

     iteration # 21     ecut=    80.00 Ry     beta= 0.30
     Davidson diagonalization with overlap
     ethr =  5.13E-11,  avg # of iterations =  1.7

     negative rho (up, down):  2.326E-04 0.000E+00

     total cpu time spent up to now is      420.7 secs

     total energy              =   -2326.92339398 Ry
     estimated scf accuracy    <       0.00000003 Ry

     iteration # 22     ecut=    80.00 Ry     beta= 0.30
     Davidson diagonalization with overlap
     ethr =  3.34E-11,  avg # of iterations =  2.5

     negative rho (up, down):  2.087E-04 0.000E+00

     total cpu time spent up to now is      440.1 secs

     End of self-consistent calculation

          k = 0.0000 0.0000 0.0000 ( 37787 PWs)   bands (ev):

   -61.8991 -61.8982 -48.2954 -48.2954 -48.2939 -48.2939 -48.2938 -48.2938
   -48.2924 -48.2924 -48.2501 -48.2501 -48.2486 -48.2486 -48.2483 -48.2483
   -48.2470 -48.2470 -48.2315 -48.2300 -48.2295 -48.2283 -36.0175 -36.0164
   -35.9022 -35.9021 -35.9008 -35.9008 -15.2965 -15.2930 -14.4782 -14.4766
    -6.4421  -6.4342  -3.3635  -3.3635  -3.3614  -3.3573  -3.3573  -3.3193
    -1.6137  -1.5746  -1.0672  -1.0672  -1.0643  -1.0643   0.2268   0.2268
     0.2297   0.2297   2.8541   2.9454   2.9455   2.9475   2.9476

          k = 0.0000 0.0722 0.0000 ( 37755 PWs)   bands (ev):

   -61.8981 -61.8972 -48.2954 -48.2952 -48.2939 -48.2938 -48.2937 -48.2936
   -48.2924 -48.2923 -48.2501 -48.2501 -48.2487 -48.2486 -48.2483 -48.2483
   -48.2470 -48.2470 -48.2314 -48.2299 -48.2294 -48.2282 -36.0153 -36.0142
   -35.9128 -35.9114 -35.9046 -35.9033 -15.2397 -15.2363 -14.4487 -14.4471
    -6.3644  -6.3565  -3.8421  -3.8269  -3.3315  -3.3253  -2.9490  -2.9225
    -1.6476  -1.6164  -1.2581  -1.2530  -1.2141  -1.2110   0.1140   0.1245
     0.3398   0.3423   2.5897   2.6350   2.8968   2.8989   3.0031

          k = 0.0000 0.1443 0.0000 ( 37697 PWs)   bands (ev):

   -61.8954 -61.8944 -48.2954 -48.2947 -48.2938 -48.2938 -48.2932 -48.2931
   -48.2924 -48.2917 -48.2503 -48.2502 -48.2489 -48.2487 -48.2485 -48.2483
   -48.2472 -48.2470 -48.2311 -48.2297 -48.2291 -48.2279 -36.0089 -36.0078
   -35.9429 -35.9415 -35.9115 -35.9102 -15.0734 -15.0700 -14.3625 -14.3608
    -6.1391  -6.1312  -4.3252  -4.3142  -3.2561  -3.2500  -2.7279  -2.7050
    -2.0830  -2.0749  -1.5016  -1.4981  -1.4715  -1.4472  -0.0123   0.0107
     0.5303   0.5322   1.9930   2.0516   2.7970   2.7989   3.2766

          k = 0.0000 0.2165 0.0000 ( 37653 PWs)   bands (ev):

   -61.8912 -61.8903 -48.2953 -48.2939 -48.2938 -48.2937 -48.2924 -48.2924
   -48.2923 -48.2909 -48.2506 -48.2503 -48.2491 -48.2488 -48.2487 -48.2484
   -48.2474 -48.2471 -48.2307 -48.2293 -48.2288 -48.2275 -35.9997 -35.9986
   -35.9874 -35.9860 -35.9219 -35.9205 -14.8104 -14.8071 -14.2262 -14.2242
    -5.7984  -5.7906  -4.7530  -4.7447  -3.2605  -3.2569  -3.2045  -3.1985
    -2.4478  -2.4271  -1.7252  -1.7215  -1.5682  -1.5514  -0.0467  -0.0184
     0.6367   0.6380   1.6198   1.7011   2.7316   2.7333   3.6532

          k = 0.0000 0.2887 0.0000 ( 37721 PWs)   bands (ev):

   -61.8864 -61.8855 -48.2953 -48.2938 -48.2937 -48.2930 -48.2924 -48.2915
   -48.2914 -48.2900 -48.2509 -48.2504 -48.2495 -48.2489 -48.2489 -48.2485
   -48.2476 -48.2472 -48.2303 -48.2288 -48.2283 -48.2271 -36.0404 -36.0390
   -35.9877 -35.9867 -35.9341 -35.9327 -14.4772 -14.4740 -14.0484 -14.0461
    -5.4861  -5.4794  -4.9922  -4.9854  -4.2822  -4.2788  -3.2588  -3.2531
    -2.6295  -2.6154  -1.8164  -1.8080  -1.7687  -1.7647   0.0340   0.0632
     0.6417   0.6427   1.7146   1.8173   2.7327   2.7346   4.1145

          k = 0.0000 0.3608 0.0000 ( 37749 PWs)   bands (ev):

   -61.8815 -61.8806 -48.2953 -48.2938 -48.2937 -48.2923 -48.2921 -48.2906
   -48.2905 -48.2891 -48.2513 -48.2505 -48.2498 -48.2492 -48.2490 -48.2486
   -48.2479 -48.2473 -48.2298 -48.2284 -48.2279 -48.2266 -36.0924 -36.0909
   -35.9764 -35.9754 -35.9462 -35.9449 -14.1289 -14.1257 -13.8289 -13.8264
    -5.6018  -5.5969  -5.2396  -5.2363  -4.7281  -4.7217  -3.4074  -3.4019
    -2.9861  -2.9782  -2.0802  -2.0744  -1.6633  -1.6594   0.2962   0.3207
     0.6184   0.6197   2.1286   2.2399   2.7693   2.7714   4.6275

          k = 0.0000 0.4330 0.0000 ( 37785 PWs)   bands (ev):

   -61.8774 -61.8765 -48.2953 -48.2938 -48.2936 -48.2923 -48.2913 -48.2898
   -48.2897 -48.2884 -48.2516 -48.2506 -48.2501 -48.2494 -48.2491 -48.2487
   -48.2481 -48.2474 -48.2295 -48.2280 -48.2275 -48.2263 -36.1361 -36.1346
   -35.9668 -35.9658 -35.9565 -35.9552 -13.8650 -13.8617 -13.5500 -13.5475
    -6.2019  -6.1980  -5.5797  -5.5758  -4.5371  -4.5333  -3.5665  -3.5612
    -3.2394  -3.2329  -2.2525  -2.2487  -1.5295  -1.5259   0.6328   0.6345
     0.6655   0.6823   2.6513   2.7502   2.8057   2.8082   4.9705

          k = 0.0000 0.5052 0.0000 ( 37822 PWs)   bands (ev):

   -61.8747 -61.8738 -48.2953 -48.2938 -48.2936 -48.2923 -48.2908 -48.2893
   -48.2892 -48.2878 -48.2518 -48.2507 -48.2503 -48.2495 -48.2492 -48.2487
   -48.2482 -48.2474 -48.2292 -48.2277 -48.2272 -48.2260 -36.1652 -36.1637
   -35.9634 -35.9620 -35.9603 -35.9593 -13.7199 -13.7163 -13.2882 -13.2856
    -6.7594  -6.7556  -5.6007  -5.5978  -4.7037  -4.7010  -3.6786  -3.6733
    -3.1185  -3.1130  -2.3798  -2.3776  -1.4422  -1.4389   0.6818   0.6841
     1.0113   1.0201   2.8283   2.8309   3.1198   3.1812   4.6262

          k = 0.0000-0.5774 0.0000 ( 37832 PWs)   bands (ev):

   -61.8737 -61.8728 -48.2954 -48.2939 -48.2936 -48.2922 -48.2906 -48.2891
   -48.2890 -48.2877 -48.2519 -48.2507 -48.2504 -48.2495 -48.2492 -48.2487
   -48.2482 -48.2474 -48.2291 -48.2277 -48.2271 -48.2259 -36.1753 -36.1738
   -35.9658 -35.9644 -35.9581 -35.9571 -13.6724 -13.6687 -13.1816 -13.1791
    -6.9646  -6.9608  -5.5709  -5.5689  -4.8465  -4.8435  -3.7182  -3.7130
    -2.9889  -2.9849  -2.4480  -2.4464  -1.4144  -1.4113   0.7093   0.7118
     1.1610   1.1645   2.8356   2.8383   3.3593   3.3859   4.3103

          k = 0.0625 0.1083 0.0000 ( 37709 PWs)   bands (ev):

   -61.8962 -61.8953 -48.2953 -48.2949 -48.2938 -48.2938 -48.2934 -48.2933
   -48.2924 -48.2919 -48.2503 -48.2502 -48.2488 -48.2487 -48.2484 -48.2483
   -48.2471 -48.2470 -48.2312 -48.2298 -48.2292 -48.2280 -36.0110 -36.0099
   -35.9328 -35.9315 -35.9096 -35.9082 -15.1281 -15.1247 -14.3909 -14.3892
    -6.2124  -6.2045  -4.1969  -4.1849  -3.2850  -3.2789  -2.7500  -2.7240
    -1.8830  -1.8742  -1.5027  -1.4979  -1.3937  -1.3734   0.0500   0.0700
     0.4301   0.4320   2.2218   2.2765   2.7501   2.7553   3.1988

          k = 0.0625 0.1804 0.0000 ( 37703 PWs)   bands (ev):

   -61.8928 -61.8919 -48.2953 -48.2942 -48.2938 -48.2937 -48.2927 -48.2926
   -48.2924 -48.2913 -48.2505 -48.2502 -48.2490 -48.2488 -48.2486 -48.2484
   -48.2473 -48.2471 -48.2309 -48.2294 -48.2289 -48.2277 -36.0030 -36.0019
   -35.9695 -35.9681 -35.9191 -35.9177 -14.9130 -14.9097 -14.2798 -14.2779
    -5.9244  -5.9166  -4.6089  -4.5997  -3.2793  -3.2734  -2.8182  -2.8073
    -2.4599  -2.4504  -1.7593  -1.7510  -1.4262  -1.4053   0.0463   0.0712
     0.4286   0.4332   1.8953   1.9646   2.5760   2.5820   3.5187

          k = 0.0625 0.2526 0.0000 ( 37702 PWs)   bands (ev):

   -61.8883 -61.8874 -48.2953 -48.2938 -48.2937 -48.2934 -48.2923 -48.2919
   -48.2918 -48.2904 -48.2508 -48.2504 -48.2493 -48.2489 -48.2488 -48.2485
   -48.2475 -48.2472 -48.2305 -48.2290 -48.2285 -48.2273 -36.0172 -36.0158
   -35.9924 -35.9913 -35.9314 -35.9301 -14.6129 -14.6096 -14.1238 -14.1216
    -5.5566  -5.5491  -4.9520  -4.9447  -3.8380  -3.8343  -3.2251  -3.2201
    -2.6066  -2.5957  -1.9684  -1.9617  -1.4526  -1.4403  -0.0168   0.0064
     0.5034   0.5164   1.7839   1.8612   2.5411   2.5576   3.9354

          k = 0.0625 0.3248 0.0000 ( 37734 PWs)   bands (ev):

   -61.8835 -61.8826 -48.2952 -48.2937 -48.2936 -48.2925 -48.2923 -48.2910
   -48.2909 -48.2896 -48.2511 -48.2505 -48.2497 -48.2491 -48.2490 -48.2486
   -48.2478 -48.2473 -48.2300 -48.2286 -48.2280 -48.2268 -36.0681 -36.0667
   -35.9811 -35.9801 -35.9448 -35.9435 -14.2645 -14.2613 -13.9303 -13.9279
    -5.4484  -5.4426  -4.9276  -4.9221  -4.7826  -4.7785  -3.4644  -3.4598
    -2.7303  -2.7227  -2.2816  -2.2785  -1.4389  -1.4321   0.0351   0.0561
     0.6536   0.6637   1.9208   1.9972   2.6241   2.6584   4.4287

          k = 0.0625 0.3969 0.0000 ( 37770 PWs)   bands (ev):

   -61.8790 -61.8781 -48.2952 -48.2937 -48.2936 -48.2922 -48.2917 -48.2902
   -48.2901 -48.2887 -48.2514 -48.2506 -48.2500 -48.2493 -48.2491 -48.2487
   -48.2480 -48.2474 -48.2296 -48.2281 -48.2276 -48.2264 -36.1148 -36.1134
   -35.9707 -35.9696 -35.9571 -35.9558 -13.9484 -13.9451 -13.6861 -13.6835
    -5.8177  -5.8136  -5.4836  -5.4796  -4.5620  -4.5567  -3.7094  -3.7051
    -2.9926  -2.9880  -2.4997  -2.4968  -1.3691  -1.3651   0.2363   0.2498
     0.8118   0.8197   2.2235   2.2721   2.7821   2.8418   4.9244

          k = 0.0625 0.4691 0.0000 ( 37798 PWs)   bands (ev):

   -61.8756 -61.8746 -48.2952 -48.2937 -48.2935 -48.2921 -48.2911 -48.2896
   -48.2895 -48.2881 -48.2517 -48.2507 -48.2502 -48.2494 -48.2492 -48.2487
   -48.2481 -48.2474 -48.2293 -48.2278 -48.2273 -48.2261 -36.1504 -36.1489
   -35.9669 -35.9656 -35.9622 -35.9612 -13.7509 -13.7474 -13.4004 -13.3979
    -6.4726  -6.4688  -5.5899  -5.5864  -4.5553  -4.5524  -3.8033  -3.7986
    -3.1074  -3.1027  -2.6048  -2.6025  -1.3283  -1.3256   0.4824   0.4885
     0.9946   1.0012   2.4695   2.4831   3.0348   3.1003   5.0217

          k = 0.0625 0.5413 0.0000 ( 37791 PWs)   bands (ev):

   -61.8737 -61.8728 -48.2952 -48.2937 -48.2935 -48.2921 -48.2907 -48.2892
   -48.2892 -48.2878 -48.2518 -48.2507 -48.2504 -48.2495 -48.2493 -48.2488
   -48.2482 -48.2475 -48.2291 -48.2276 -48.2271 -48.2259 -36.1695 -36.1680
   -35.9718 -35.9705 -35.9581 -35.9571 -13.6577 -13.6541 -13.2053 -13.2027
    -6.8595  -6.8557  -5.5721  -5.5696  -4.7651  -4.7622  -3.8208  -3.8160
    -2.9937  -2.9898  -2.6769  -2.6752  -1.3292  -1.3269   0.6648   0.6674
     1.1256   1.1296   2.5735   2.5765   3.2950   3.3295   4.5966

          k = 0.1250 0.2165 0.0000 ( 37731 PWs)   bands (ev):

   -61.8890 -61.8881 -48.2952 -48.2937 -48.2936 -48.2936 -48.2923 -48.2921
   -48.2920 -48.2906 -48.2508 -48.2503 -48.2493 -48.2489 -48.2488 -48.2485
   -48.2475 -48.2472 -48.2305 -48.2291 -48.2286 -48.2273 -36.0073 -36.0059
   -35.9942 -35.9931 -35.9320 -35.9306 -14.6595 -14.6562 -14.1496 -14.1475
    -5.5875  -5.5798  -4.9197  -4.9122  -3.6965  -3.6920  -3.0151  -3.0067
    -2.8663  -2.8621  -1.9390  -1.9273  -1.3344  -1.3166   0.0447   0.0555
     0.2966   0.3235   2.1083   2.1812   2.1828   2.2023   3.8796

          k = 0.1250 0.2887 0.0000 ( 37723 PWs)   bands (ev):

   -61.8845 -61.8836 -48.2951 -48.2936 -48.2935 -48.2928 -48.2921 -48.2913
   -48.2912 -48.2899 -48.2510 -48.2504 -48.2496 -48.2490 -48.2490 -48.2486
   -48.2477 -48.2473 -48.2301 -48.2287 -48.2281 -48.2269 -36.0509 -36.0495
   -35.9839 -35.9828 -35.9480 -35.9466 -14.3370 -14.3338 -13.9824 -13.9801
    -5.2727  -5.2663  -5.0839  -5.0771  -4.4642  -4.4604  -3.4648  -3.4604
    -2.9561  -2.9522  -2.2038  -2.1977  -1.2050  -1.1921  -0.1711  -0.1546
     0.5920   0.6138   1.8619   1.8781   2.4201   2.5112   4.3316

          k = 0.1250 0.3608 0.0000 ( 37761 PWs)   bands (ev):

   -61.8800 -61.8791 -48.2950 -48.2935 -48.2933 -48.2921 -48.2920 -48.2906
   -48.2905 -48.2892 -48.2513 -48.2506 -48.2499 -48.2492 -48.2491 -48.2487
   -48.2479 -48.2474 -48.2297 -48.2282 -48.2277 -48.2265 -36.0938 -36.0923
   -35.9740 -35.9730 -35.9637 -35.9624 -13.9969 -13.9937 -13.7815 -13.7789
    -5.4748  -5.4699  -5.2641  -5.2606  -4.6697  -4.6632  -3.8523  -3.8485
    -3.0553  -3.0520  -2.6323  -2.6293  -1.0712  -1.0631  -0.1350  -0.1199
     0.8798   0.8923   1.7793   1.7972   2.7290   2.8212   4.8409

          k = 0.1250 0.4330 0.0000 ( 37768 PWs)   bands (ev):

   -61.8762 -61.8753 -48.2949 -48.2934 -48.2932 -48.2918 -48.2915 -48.2900
   -48.2899 -48.2885 -48.2516 -48.2507 -48.2501 -48.2494 -48.2492 -48.2488
   -48.2480 -48.2475 -48.2294 -48.2279 -48.2274 -48.2262 -36.1298 -36.1283
   -35.9791 -35.9777 -35.9638 -35.9628 -13.7469 -13.7436 -13.5184 -13.5157
    -6.0641  -6.0603  -5.5234  -5.5194  -4.3977  -4.3939  -4.0796  -4.0753
    -3.1667  -3.1640  -2.9807  -2.9778  -1.0370  -1.0326   0.1110   0.1216
     1.0742   1.0798   1.8913   1.9059   3.0199   3.0930   5.2458

          k = 0.1250 0.5052 0.0000 ( 37794 PWs)   bands (ev):

   -61.8737 -61.8728 -48.2948 -48.2933 -48.2931 -48.2917 -48.2911 -48.2896
   -48.2895 -48.2881 -48.2517 -48.2508 -48.2503 -48.2495 -48.2494 -48.2488
   -48.2481 -48.2475 -48.2291 -48.2277 -48.2271 -48.2259 -36.1537 -36.1522
   -35.9881 -35.9867 -35.9581 -35.9571 -13.6151 -13.6116 -13.2694 -13.2667
    -6.5673  -6.5636  -5.5564  -5.5533  -4.5698  -4.5670  -4.0311  -4.0270
    -3.2480  -3.2457  -3.0446  -3.0414  -1.0932  -1.0908   0.4518   0.4576
     1.1252   1.1278   2.0619   2.0701   3.2268   3.2660   5.1569

          k = 0.1250 0.5774 0.0000 ( 37780 PWs)   bands (ev):

   -61.8728 -61.8719 -48.2948 -48.2933 -48.2931 -48.2917 -48.2909 -48.2894
   -48.2893 -48.2880 -48.2518 -48.2509 -48.2503 -48.2495 -48.2494 -48.2488
   -48.2482 -48.2476 -48.2290 -48.2276 -48.2271 -48.2258 -36.1620 -36.1606
   -35.9914 -35.9900 -35.9561 -35.9551 -13.5714 -13.5678 -13.1701 -13.1674
    -6.7509  -6.7471  -5.5483  -5.5457  -4.6844  -4.6814  -4.0275  -4.0234
    -3.2771  -3.2750  -2.9989  -2.9961  -1.1320  -1.1301   0.6556   0.6577
     1.0767   1.0791   2.1482   2.1506   3.3017   3.3226   4.9644

          k = 0.1875 0.3248 0.0000 ( 37725 PWs)   bands (ev):

   -61.8804 -61.8795 -48.2948 -48.2933 -48.2932 -48.2923 -48.2918 -48.2908
   -48.2907 -48.2893 -48.2513 -48.2506 -48.2498 -48.2491 -48.2491 -48.2487
   -48.2478 -48.2474 -48.2297 -48.2283 -48.2278 -48.2265 -36.0842 -36.0828
   -35.9761 -35.9750 -35.9673 -35.9660 -14.0122 -14.0091 -13.8162 -13.8135
    -5.3426  -5.3373  -5.0955  -5.0917  -4.7587  -4.7521  -3.8555  -3.8519
    -3.3361  -3.3321  -2.5128  -2.5102  -0.9047  -0.8934  -0.3145  -0.2998
     0.8759   0.8923   1.5988   1.6056   2.7124   2.8138   4.8065

          k = 0.1875 0.3969 0.0000 ( 37753 PWs)   bands (ev):

   -61.8766 -61.8757 -48.2946 -48.2931 -48.2929 -48.2919 -48.2915 -48.2903
   -48.2903 -48.2889 -48.2515 -48.2507 -48.2501 -48.2493 -48.2492 -48.2488
   -48.2480 -48.2475 -48.2294 -48.2279 -48.2274 -48.2262 -36.1130 -36.1115
   -35.9913 -35.9900 -35.9646 -35.9636 -13.7093 -13.7061 -13.6188 -13.6159
    -5.6952  -5.6914  -5.4461  -5.4416  -4.3576  -4.3520  -4.2072  -4.2039
    -3.6617  -3.6582  -2.9109  -2.9095  -0.6961  -0.6890  -0.2445  -0.2334
     1.1019   1.1102   1.5157   1.5267   3.0195   3.0971   5.2930

          k = 0.1875 0.4691 0.0000 ( 37759 PWs)   bands (ev):

   -61.8737 -61.8728 -48.2943 -48.2928 -48.2926 -48.2915 -48.2913 -48.2900
   -48.2899 -48.2886 -48.2516 -48.2509 -48.2502 -48.2495 -48.2494 -48.2489
   -48.2481 -48.2476 -48.2291 -48.2277 -48.2271 -48.2259 -36.1339 -36.1324
   -36.0084 -36.0070 -35.9581 -35.9571 -13.5489 -13.5455 -13.3565 -13.3537
    -6.1794  -6.1757  -5.5132  -5.5094  -4.4289  -4.4257  -4.1206  -4.1167
    -3.8871  -3.8843  -3.1810  -3.1791  -0.7458  -0.7421   0.0998   0.1066
     1.1453   1.1482   1.6658   1.6785   3.2066   3.2456   5.5267

          k = 0.1875 0.5413 0.0000 ( 37793 PWs)   bands (ev):

   -61.8721 -61.8712 -48.2942 -48.2927 -48.2925 -48.2913 -48.2911 -48.2898
   -48.2898 -48.2884 -48.2517 -48.2510 -48.2502 -48.2495 -48.2495 -48.2489
   -48.2482 -48.2476 -48.2290 -48.2275 -48.2270 -48.2258 -36.1448 -36.1434
   -36.0181 -36.0167 -35.9545 -35.9535 -13.4713 -13.4678 -13.1870 -13.1842
    -6.4568  -6.4531  -5.5416  -5.5384  -4.5225  -4.5192  -4.1630  -4.1598
    -3.9617  -3.9594  -3.2021  -3.2000  -0.8330  -0.8308   0.4689   0.4716
     0.9985   1.0002   1.8795   1.8871   3.2157   3.2315   5.5249

          k = 0.2500 0.4330 0.0000 ( 37711 PWs)   bands (ev):

   -61.8737 -61.8728 -48.2941 -48.2926 -48.2924 -48.2917 -48.2910 -48.2902
   -48.2901 -48.2888 -48.2516 -48.2509 -48.2501 -48.2495 -48.2494 -48.2489
   -48.2482 -48.2476 -48.2291 -48.2277 -48.2271 -48.2259 -36.1235 -36.1220
   -36.0190 -36.0176 -35.9581 -35.9571 -13.4870 -13.4838 -13.4268 -13.4239
    -5.9589  -5.9552  -5.4817  -5.4776  -4.4105  -4.4075  -4.2505  -4.2472
    -4.0464  -4.0421  -3.2766  -3.2753  -0.3375  -0.3299  -0.3133  -0.3102
     1.1397   1.1442   1.5402   1.5540   3.2056   3.2439   5.6664

          k = 0.2500 0.5052 0.0000 ( 37776 PWs)   bands (ev):

   -61.8717 -61.8708 -48.2937 -48.2922 -48.2921 -48.2917 -48.2907 -48.2902
   -48.2902 -48.2888 -48.2516 -48.2510 -48.2502 -48.2496 -48.2496 -48.2489
   -48.2483 -48.2476 -48.2290 -48.2275 -48.2270 -48.2258 -36.1260 -36.1245
   -36.0421 -36.0407 -35.9537 -35.9527 -13.3774 -13.3740 -13.2398 -13.2369
    -6.1066  -6.1030  -5.5334  -5.5295  -4.6700  -4.6665  -4.3876  -4.3850
    -3.9719  -3.9692  -3.5144  -3.5128  -0.4372  -0.4341   0.0592   0.0613
     0.9617   0.9634   1.8314   1.8461   3.1505   3.1588   5.6977

          k = 0.2500 0.5774 0.0000 ( 37791 PWs)   bands (ev):

   -61.8711 -61.8702 -48.2935 -48.2920 -48.2920 -48.2916 -48.2906 -48.2902
   -48.2902 -48.2889 -48.2516 -48.2511 -48.2501 -48.2497 -48.2496 -48.2489
   -48.2483 -48.2476 -48.2289 -48.2274 -48.2269 -48.2257 -36.1254 -36.1240
   -36.0516 -36.0502 -35.9521 -35.9511 -13.3387 -13.3353 -13.1699 -13.1670
    -6.1495  -6.1459  -5.5635  -5.5598  -4.8230  -4.8194  -4.2079  -4.2056
    -4.1879  -4.1858  -3.5152  -3.5133  -0.4876  -0.4854   0.3184   0.3191
     0.7546   0.7567   2.0543   2.0616   3.0151   3.0200   5.6420

          k = 0.3125 0.5413 0.0000 ( 37789 PWs)   bands (ev):

   -61.8707 -61.8698 -48.2931 -48.2922 -48.2916 -48.2913 -48.2907 -48.2906
   -48.2899 -48.2892 -48.2515 -48.2512 -48.2501 -48.2497 -48.2497 -48.2489
   -48.2484 -48.2476 -48.2289 -48.2274 -48.2269 -48.2257 -36.1079 -36.1065
   -36.0741 -36.0727 -35.9513 -35.9503 -13.2593 -13.2559 -13.1973 -13.1943
    -5.8453  -5.8417  -5.5733  -5.5693  -5.2626  -5.2591  -4.2209  -4.2186
    -3.8830  -3.8808  -3.8796  -3.8784  -0.1504  -0.1475   0.0275   0.0291
     0.6550   0.6572   2.2594   2.2723   2.8276   2.8339   5.5875

     the Fermi energy is    -0.2989 ev

!    total energy              =   -2326.92339373 Ry
     total all-electron energy =    -35628.671223 Ry
     estimated scf accuracy    <          9.5E-09 Ry
     smearing contrib. (-TS)   =       0.00089181 Ry
     internal energy E=F+TS    =   -2326.92428554 Ry

     The total energy is F=E-TS. E is the sum of the following terms:
     one-electron contribution =  -22970.75759661 Ry
     hartree contribution      =   11473.59818436 Ry
     xc contribution           =    -152.42393199 Ry
     ewald contribution        =   10333.17345254 Ry
     one-center paw contrib.   =   -1010.51439384 Ry

     convergence has been achieved in  22 iterations

     Writing all to output data dir ./tmp/cleave_016/mose2_cleave_016.save/ :
     XML data file, charge density, pseudopotentials, collected wavefunctions

     init_run     :     11.43s CPU     11.78s WALL (       1 calls)
     electrons    :    415.66s CPU    428.19s WALL (       1 calls)

     Called by init_run:
     wfcinit      :      5.21s CPU      5.32s WALL (       1 calls)
     potinit      :      5.55s CPU      5.69s WALL (       1 calls)
     hinit0       :      0.05s CPU      0.06s WALL (       1 calls)

     Called by electrons:
     c_bands      :    344.15s CPU    352.18s WALL (      23 calls)
     sum_band     :     46.43s CPU     48.67s WALL (      23 calls)
     v_of_rho     :     14.23s CPU     15.07s WALL (      23 calls)
     newd         :      9.22s CPU     10.69s WALL (      23 calls)
     PAW_pot      :      1.44s CPU      1.48s WALL (      23 calls)
     mix_rho      :      5.89s CPU      6.01s WALL (      23 calls)
     vdW_kernel   :      5.10s CPU      5.21s WALL (       1 calls)

     Called by c_bands:
     init_us_2    :      1.46s CPU      1.47s WALL (    1410 calls)
     cegterg      :    331.93s CPU    339.56s WALL (     690 calls)

     Called by *egterg:
     cdiaghg      :      7.67s CPU      7.69s WALL (    3027 calls)
     h_psi        :    127.55s CPU    129.56s WALL (    3087 calls)
     s_psi        :     14.16s CPU     14.17s WALL (    3087 calls)
     g_psi        :      0.15s CPU      0.15s WALL (    2367 calls)

     Called by h_psi:
     h_psi:calbec :     43.52s CPU     44.75s WALL (    3087 calls)
     vloc_psi     :     69.43s CPU     70.19s WALL (    3087 calls)
                                        0.00s GPU  (    3087 calls)
     add_vuspsi   :     14.39s CPU     14.41s WALL (    3087 calls)

     General routines
     calbec       :     62.16s CPU     63.93s WALL (    3777 calls)
     fft          :      7.15s CPU      7.41s WALL (    1448 calls)
     ffts         :      2.16s CPU      2.19s WALL (    2629 calls)
     fftw         :     83.43s CPU     84.39s WALL (  209148 calls)
     interpolate  :      0.11s CPU      0.11s WALL (      23 calls)

     Parallel routines

     PWSCF        :   7m 7.60s CPU   7m20.64s WALL


   This run was terminated on:  10:59:33  20Jun2026            

=------------------------------------------------------------------------------=
   JOB DONE.
=------------------------------------------------------------------------------=
Note: The following floating-point exceptions are signalling: IEEE_UNDERFLOW_FLAG IEEE_DENORMAL
Note: The following floating-point exceptions are signalling: IEEE_UNDERFLOW_FLAG IEEE_DENORMAL
Note: The following floating-point exceptions are signalling: IEEE_UNDERFLOW_FLAG IEEE_DENORMAL
Note: The following floating-point exceptions are signalling: IEEE_UNDERFLOW_FLAG IEEE_DENORMAL
Note: The following floating-point exceptions are signalling: IEEE_UNDERFLOW_FLAG IEEE_DENORMAL
Note: The following floating-point exceptions are signalling: IEEE_UNDERFLOW_FLAG IEEE_DENORMAL
Note: The following floating-point exceptions are signalling: IEEE_UNDERFLOW_FLAG IEEE_DENORMAL
Note: The following floating-point exceptions are signalling: IEEE_UNDERFLOW_FLAG IEEE_DENORMAL
Note: The following floating-point exceptions are signalling: IEEE_UNDERFLOW_FLAG IEEE_DENORMAL
Note: The following floating-point exceptions are signalling: IEEE_UNDERFLOW_FLAG IEEE_DENORMAL
Note: The following floating-point exceptions are signalling: IEEE_UNDERFLOW_FLAG IEEE_DENORMAL
Note: The following floating-point exceptions are signalling: IEEE_UNDERFLOW_FLAG IEEE_DENORMAL
Note: The following floating-point exceptions are signalling: IEEE_UNDERFLOW_FLAG IEEE_DENORMAL
Note: The following floating-point exceptions are signalling: IEEE_UNDERFLOW_FLAG IEEE_DENORMAL
Note: The following floating-point exceptions are signalling: IEEE_UNDERFLOW_FLAG IEEE_DENORMAL
Note: The following floating-point exceptions are signalling: IEEE_UNDERFLOW_FLAG IEEE_DENORMAL
Note: The following floating-point exceptions are signalling: IEEE_UNDERFLOW_FLAG IEEE_DENORMAL
Note: The following floating-point exceptions are signalling: IEEE_UNDERFLOW_FLAG IEEE_DENORMAL
Note: The following floating-point exceptions are signalling: IEEE_UNDERFLOW_FLAG IEEE_DENORMAL
Note: The following floating-point exceptions are signalling: IEEE_UNDERFLOW_FLAG IEEE_DENORMAL
Note: The following floating-point exceptions are signalling: IEEE_UNDERFLOW_FLAG IEEE_DENORMAL
Note: The following floating-point exceptions are signalling: IEEE_UNDERFLOW_FLAG IEEE_DENORMAL
Note: The following floating-point exceptions are signalling: IEEE_UNDERFLOW_FLAG IEEE_DENORMAL
Note: The following floating-point exceptions are signalling: IEEE_UNDERFLOW_FLAG IEEE_DENORMAL
