
     Program PWSCF v.7.5 starts on 20Jun2026 at  9:49:35 

     This program is part of the open-source Quantum ESPRESSO suite
     for quantum simulation of materials; please cite
         "P. Giannozzi et al., J. Phys.:Condens. Matter 21 395502 (2009);
         "P. Giannozzi et al., J. Phys.:Condens. Matter 29 465901 (2017);
         "P. Giannozzi et al., J. Chem. Phys. 152 154105 (2020);
          URL http://www.quantum-espresso.org", 
     in publications or presentations arising from this work. More details at
     http://www.quantum-espresso.org/quote

     Parallel version (MPI), running on    24 processors

     MPI processes distributed on     1 nodes
     6635 MiB available memory on the printing compute node when the environment starts

     Waiting for input...
     Reading input from standard input

     Current dimensions of program PWSCF are:
     Max number of different atomic species (ntypx) = 10
     Max number of k-points (npk) =  40000
     Max angular momentum in pseudopotentials (lmaxx) =  4
     file Mo.pbe-spn-kjpaw_psl.1.0.0.UPF: wavefunction(s)  4S 4D renormalized
     file Se.pbe-dn-kjpaw_psl.1.0.0.UPF: wavefunction(s)  4S 4P 3D renormalized

     IMPORTANT: XC functional enforced from input :
     Exchange-correlation= VDW-DF2-B86R
                           (   1   4  26   0   2   0   0)
     Any further DFT definition will be discarded
     Please, verify this is what you really want


     R & G space division:  proc/nbgrp/npool/nimage =      24
     Subspace diagonalization in iterative solution of the eigenvalue problem:
     a serial algorithm will be used


     Parallelization info
     --------------------
     sticks:   dense  smooth     PW     G-vecs:    dense   smooth      PW
     Min          69      35     10                35537    12585    1924
     Max          70      36     11                35620    12648    1981
     Sum        1675     847    241               853823   302525   46513

     Using Slab Decomposition



     bravais-lattice index     =            4
     lattice parameter (alat)  =       6.1794  a.u.
     unit-cell volume          =    3124.5879 (a.u.)^3
     number of atoms/cell      =            6
     number of atomic types    =            2
     number of electrons       =        92.00
     number of Kohn-Sham states=           55
     kinetic-energy cutoff     =      80.0000  Ry
     charge density cutoff     =     640.0000  Ry
     scf convergence threshold =      1.0E-08
     mixing beta               =       0.3000
     number of iterations used =            8  local-TF  mixing
     Exchange-correlation= VDW-DF2-B86R
                           (   1   4  26   0   2   0   0)

     celldm(1)=   6.179404  celldm(2)=   0.000000  celldm(3)=  15.290520
     celldm(4)=   0.000000  celldm(5)=   0.000000  celldm(6)=   0.000000

     crystal axes: (cart. coord. in units of alat)
               a(1) = (   1.000000   0.000000   0.000000 )  
               a(2) = (  -0.500000   0.866025   0.000000 )  
               a(3) = (   0.000000   0.000000  15.290520 )  

     reciprocal axes: (cart. coord. in units 2 pi/alat)
               b(1) = (  1.000000  0.577350 -0.000000 )  
               b(2) = (  0.000000  1.154701  0.000000 )  
               b(3) = (  0.000000 -0.000000  0.065400 )  


     PseudoPot. # 1 for Mo read from file:
     ./pseudo/Mo.pbe-spn-kjpaw_psl.1.0.0.UPF
     MD5 check sum: 4396e0c640fcce5c25f020efccf1ab12
     Pseudo is Projector augmented-wave + core cor, Zval = 14.0
     Generated using &quot;atomic&quot; code by A. Dal Corso  v.6.3
     Shape of augmentation charge: PSQ
     Using radial grid of 1229 points,  6 beta functions with: 
                l(1) =   0
                l(2) =   0
                l(3) =   1
                l(4) =   1
                l(5) =   2
                l(6) =   2
     Q(r) pseudized with 0 coefficients 


     PseudoPot. # 2 for Se read from file:
     ./pseudo/Se.pbe-dn-kjpaw_psl.1.0.0.UPF
     MD5 check sum: ac240dd2bae32a30e0bf3a38df9c8785
     Pseudo is Projector augmented-wave + core cor, Zval = 16.0
     Generated using &quot;atomic&quot; code by A. Dal Corso  v.6.3
     Shape of augmentation charge: PSQ
     Using radial grid of 1211 points,  6 beta functions with: 
                l(1) =   0
                l(2) =   0
                l(3) =   1
                l(4) =   1
                l(5) =   2
                l(6) =   2
     Q(r) pseudized with 0 coefficients 


     atomic species   valence    mass     pseudopotential
     Mo               14.00    95.96000     Mo( 1.00)
     Se               16.00    78.96000     Se( 1.00)

      6 Sym. Ops. (no inversion) found



   Cartesian axes

     site n.     atom                  positions (alat units)
         1        Se     tau(   1) = (  -0.0000005   0.5773506   6.1238532  )
         2        Mo     tau(   2) = (   0.0000000   0.0000000   6.6502752  )
         3        Se     tau(   3) = (   0.5000005   0.2886748   7.1775994  )
         4        Se     tau(   4) = (  -0.0000005   0.5773506   8.6016361  )
         5        Mo     tau(   5) = (   0.5000005   0.2886748   9.1288226  )
         6        Se     tau(   6) = (   0.0000000   0.0000000   9.6559633  )

     number of k points=    30  Methfessel-Paxton smearing, width (Ry)=  0.0200
                       cart. coord. in units 2pi/alat
        k(    1) = (   0.0000000   0.0000000   0.0000000), wk =   0.0078125
        k(    2) = (   0.0000000   0.0721688   0.0000000), wk =   0.0468750
        k(    3) = (   0.0000000   0.1443376   0.0000000), wk =   0.0468750
        k(    4) = (   0.0000000   0.2165064   0.0000000), wk =   0.0468750
        k(    5) = (   0.0000000   0.2886751   0.0000000), wk =   0.0468750
        k(    6) = (   0.0000000   0.3608439   0.0000000), wk =   0.0468750
        k(    7) = (   0.0000000   0.4330127   0.0000000), wk =   0.0468750
        k(    8) = (   0.0000000   0.5051815   0.0000000), wk =   0.0468750
        k(    9) = (   0.0000000  -0.5773503   0.0000000), wk =   0.0234375
        k(   10) = (   0.0625000   0.1082532   0.0000000), wk =   0.0468750
        k(   11) = (   0.0625000   0.1804220   0.0000000), wk =   0.0937500
        k(   12) = (   0.0625000   0.2525907   0.0000000), wk =   0.0937500
        k(   13) = (   0.0625000   0.3247595   0.0000000), wk =   0.0937500
        k(   14) = (   0.0625000   0.3969283   0.0000000), wk =   0.0937500
        k(   15) = (   0.0625000   0.4690971   0.0000000), wk =   0.0937500
        k(   16) = (   0.0625000   0.5412659   0.0000000), wk =   0.0937500
        k(   17) = (   0.1250000   0.2165064   0.0000000), wk =   0.0468750
        k(   18) = (   0.1250000   0.2886751   0.0000000), wk =   0.0937500
        k(   19) = (   0.1250000   0.3608439   0.0000000), wk =   0.0937500
        k(   20) = (   0.1250000   0.4330127   0.0000000), wk =   0.0937500
        k(   21) = (   0.1250000   0.5051815   0.0000000), wk =   0.0937500
        k(   22) = (   0.1250000   0.5773503   0.0000000), wk =   0.0468750
        k(   23) = (   0.1875000   0.3247595   0.0000000), wk =   0.0468750
        k(   24) = (   0.1875000   0.3969283   0.0000000), wk =   0.0937500
        k(   25) = (   0.1875000   0.4690971   0.0000000), wk =   0.0937500
        k(   26) = (   0.1875000   0.5412659   0.0000000), wk =   0.0937500
        k(   27) = (   0.2500000   0.4330127   0.0000000), wk =   0.0468750
        k(   28) = (   0.2500000   0.5051815   0.0000000), wk =   0.0937500
        k(   29) = (   0.2500000   0.5773503   0.0000000), wk =   0.0468750
        k(   30) = (   0.3125000   0.5412659   0.0000000), wk =   0.0468750

     Dense  grid:   853823 G-vectors     FFT dimensions: (  50,  50, 768)

     Smooth grid:   302525 G-vectors     FFT dimensions: (  36,  36, 540)

     Estimated max dynamical RAM per process >     171.88 MB

     Estimated total dynamical RAM >       4.03 GB

     Initial potential from superposition of free atoms

     starting charge      91.9979, renormalised to      92.0000

     negative rho (up, down):  1.940E-04 0.000E+00


     %%%%%%%%%%%%%%%%%%%%%%%%%%%%%%%%%%%%%%%%%%%%%%%%%%%%%%%%%%%%%%%%%%%%%%%%
     %                                                                      %
     % You are using vdW-DF, which was implemented by the Thonhauser group. %
     % Please cite the following two papers that made this development      %
     % possible and the two reviews that describe the various versions:     %
     %                                                                      %
     %   T. Thonhauser et al., PRL 115, 136402 (2015).                      %
     %   T. Thonhauser et al., PRB 76, 125112 (2007).                       %
     %   K. Berland et al., Rep. Prog. Phys. 78, 066501 (2015).             %
     %   D.C. Langreth et al., J. Phys.: Condens. Matter 21, 084203 (2009). %
     %                                                                      %
     % If you are calculating stress with vdW-DF, please also cite:         %
     %                                                                      %
     %   R. Sabatini et al., J. Phys.: Condens. Matter 24, 424209 (2012).   %
     %                                                                      %
     %%%%%%%%%%%%%%%%%%%%%%%%%%%%%%%%%%%%%%%%%%%%%%%%%%%%%%%%%%%%%%%%%%%%%%%%

     %%%%%%%%%%%%%%%%%%%%%%%%%%%%%%%%%%%%%%%%%%%%%%%%%%%%%%%%%%%%%%%%%%%%%%%%
     %                                                                      %
     %  vdW-DF NEWS:                                                        %
     %                                                                      %
     %  * vdW-DF3 is now available. DOI: 10.1021/acs.jctc.0c00471           %
     %    use with input_dft = 'vdW-DF3-opt1' or 'vdW-DF3-opt2'             %
     %                                                                      %
     %  * Unscreened and range-separated hybrid vdW-DF-cx functionals       %
     %    DOI: 10.1063/1.4986522 and 10.1088/1361-648X/ac2ad2               %
     %    use with input_dft = 'vdW-DF-cx0'    and 'vdW-DF-ahcx'            %
     %  * Unscreened and range-separated hybrid vdW-DF2-b86r functionals    %
     %    DOI: 10.1063/1.4986522 and DOI: 10.1103/PhysRevX.12.041003        %
     %    use with input_dft = 'vdW-DF2-br0' and 'vdW-DF2-ahbr'             %
     %                                                                      %
     %%%%%%%%%%%%%%%%%%%%%%%%%%%%%%%%%%%%%%%%%%%%%%%%%%%%%%%%%%%%%%%%%%%%%%%%


     Starting wfcs are   56 randomized atomic wfcs
     Checking if some PAW data can be deallocated... 

     total cpu time spent up to now is       11.9 secs

     per-process dynamical memory:    79.7 Mb

     Self-consistent Calculation

     iteration #  1     ecut=    80.00 Ry     beta= 0.30
     Davidson diagonalization with overlap
     ethr =  1.00E-02,  avg # of iterations =  4.2

     Threshold (ethr) on eigenvalues was too large:
     Diagonalizing with lowered threshold

     Davidson diagonalization with overlap
     ethr =  4.42E-04,  avg # of iterations =  2.0

     negative rho (up, down):  6.431E-05 0.000E+00

     total cpu time spent up to now is       49.7 secs

     total energy              =   -2326.96799327 Ry
     estimated scf accuracy    <       0.45451164 Ry

     iteration #  2     ecut=    80.00 Ry     beta= 0.30
     Davidson diagonalization with overlap
     ethr =  4.94E-04,  avg # of iterations =  1.1

     negative rho (up, down):  4.051E-05 0.000E+00

     total cpu time spent up to now is       65.2 secs

     total energy              =   -2326.92145240 Ry
     estimated scf accuracy    <       0.23794280 Ry

     iteration #  3     ecut=    80.00 Ry     beta= 0.30
     Davidson diagonalization with overlap
     ethr =  2.59E-04,  avg # of iterations =  4.3

     negative rho (up, down):  2.383E-05 0.000E+00

     total cpu time spent up to now is       83.9 secs

     total energy              =   -2326.92861236 Ry
     estimated scf accuracy    <       0.02933191 Ry

     iteration #  4     ecut=    80.00 Ry     beta= 0.30
     Davidson diagonalization with overlap
     ethr =  3.19E-05,  avg # of iterations = 10.6

     negative rho (up, down):  1.326E-05 0.000E+00

     total cpu time spent up to now is      105.8 secs

     total energy              =   -2326.92901983 Ry
     estimated scf accuracy    <       0.00849326 Ry

     iteration #  5     ecut=    80.00 Ry     beta= 0.30
     Davidson diagonalization with overlap
     ethr =  9.23E-06,  avg # of iterations =  4.4

     negative rho (up, down):  1.591E-06 0.000E+00

     total cpu time spent up to now is      126.0 secs

     total energy              =   -2326.92870614 Ry
     estimated scf accuracy    <       0.00339007 Ry

     iteration #  6     ecut=    80.00 Ry     beta= 0.30
     Davidson diagonalization with overlap
     ethr =  3.68E-06,  avg # of iterations =  7.3

     negative rho (up, down):  7.279E-07 0.000E+00

     total cpu time spent up to now is      147.2 secs

     total energy              =   -2326.92874510 Ry
     estimated scf accuracy    <       0.00179632 Ry

     iteration #  7     ecut=    80.00 Ry     beta= 0.30
     Davidson diagonalization with overlap
     ethr =  1.95E-06,  avg # of iterations =  2.2

     negative rho (up, down):  3.668E-04 0.000E+00

     total cpu time spent up to now is      164.6 secs

     total energy              =   -2326.92851794 Ry
     estimated scf accuracy    <       0.00176169 Ry

     iteration #  8     ecut=    80.00 Ry     beta= 0.30
     Davidson diagonalization with overlap
     ethr =  1.91E-06,  avg # of iterations =  5.7

     negative rho (up, down):  1.157E-03 0.000E+00

     total cpu time spent up to now is      183.8 secs

     total energy              =   -2326.92844278 Ry
     estimated scf accuracy    <       0.00110083 Ry

     iteration #  9     ecut=    80.00 Ry     beta= 0.30
     Davidson diagonalization with overlap
     ethr =  1.20E-06,  avg # of iterations =  1.8

     negative rho (up, down):  4.597E-03 0.000E+00

     total cpu time spent up to now is      200.9 secs

     total energy              =   -2326.92835543 Ry
     estimated scf accuracy    <       0.00070694 Ry

     iteration # 10     ecut=    80.00 Ry     beta= 0.30
     Davidson diagonalization with overlap
     ethr =  7.68E-07,  avg # of iterations =  8.0

     negative rho (up, down):  4.956E-03 0.000E+00

     total cpu time spent up to now is      221.1 secs

     total energy              =   -2326.92838202 Ry
     estimated scf accuracy    <       0.00038014 Ry

     iteration # 11     ecut=    80.00 Ry     beta= 0.30
     Davidson diagonalization with overlap
     ethr =  4.13E-07,  avg # of iterations =  3.5

     negative rho (up, down):  2.910E-03 0.000E+00

     total cpu time spent up to now is      238.7 secs

     total energy              =   -2326.92835201 Ry
     estimated scf accuracy    <       0.00028537 Ry

     iteration # 12     ecut=    80.00 Ry     beta= 0.30
     Davidson diagonalization with overlap
     ethr =  3.10E-07,  avg # of iterations =  2.5

     negative rho (up, down):  4.132E-03 0.000E+00

     total cpu time spent up to now is      255.8 secs

     total energy              =   -2326.92828624 Ry
     estimated scf accuracy    <       0.00022446 Ry

     iteration # 13     ecut=    80.00 Ry     beta= 0.30
     Davidson diagonalization with overlap
     ethr =  2.44E-07,  avg # of iterations =  4.9

     negative rho (up, down):  5.908E-03 0.000E+00

     total cpu time spent up to now is      273.4 secs

     total energy              =   -2326.92823176 Ry
     estimated scf accuracy    <       0.00012421 Ry

     iteration # 14     ecut=    80.00 Ry     beta= 0.30
     Davidson diagonalization with overlap
     ethr =  1.35E-07,  avg # of iterations =  3.9

     negative rho (up, down):  5.241E-03 0.000E+00

     total cpu time spent up to now is      292.3 secs

     total energy              =   -2326.92828709 Ry
     estimated scf accuracy    <       0.00007612 Ry

     iteration # 15     ecut=    80.00 Ry     beta= 0.30
     Davidson diagonalization with overlap
     ethr =  8.27E-08,  avg # of iterations =  3.7

     negative rho (up, down):  3.656E-03 0.000E+00

     total cpu time spent up to now is      309.4 secs

     total energy              =   -2326.92828539 Ry
     estimated scf accuracy    <       0.00005263 Ry

     iteration # 16     ecut=    80.00 Ry     beta= 0.30
     Davidson diagonalization with overlap
     ethr =  5.72E-08,  avg # of iterations =  6.6

     negative rho (up, down):  2.499E-03 0.000E+00

     total cpu time spent up to now is      329.1 secs

     total energy              =   -2326.92830612 Ry
     estimated scf accuracy    <       0.00002294 Ry

     iteration # 17     ecut=    80.00 Ry     beta= 0.30
     Davidson diagonalization with overlap
     ethr =  2.49E-08,  avg # of iterations =  5.6

     negative rho (up, down):  1.447E-03 0.000E+00

     total cpu time spent up to now is      347.1 secs

     total energy              =   -2326.92832667 Ry
     estimated scf accuracy    <       0.00000840 Ry

     iteration # 18     ecut=    80.00 Ry     beta= 0.30
     Davidson diagonalization with overlap
     ethr =  9.13E-09,  avg # of iterations =  4.2

     negative rho (up, down):  3.715E-04 0.000E+00

     total cpu time spent up to now is      366.7 secs

     total energy              =   -2326.92833666 Ry
     estimated scf accuracy    <       0.00000354 Ry

     iteration # 19     ecut=    80.00 Ry     beta= 0.30
     Davidson diagonalization with overlap
     ethr =  3.85E-09,  avg # of iterations =  6.5

     negative rho (up, down):  3.156E-04 0.000E+00

     total cpu time spent up to now is      386.3 secs

     total energy              =   -2326.92833788 Ry
     estimated scf accuracy    <       0.00000038 Ry

     iteration # 20     ecut=    80.00 Ry     beta= 0.30
     Davidson diagonalization with overlap
     ethr =  4.12E-10,  avg # of iterations =  2.2

     negative rho (up, down):  2.853E-04 0.000E+00

     total cpu time spent up to now is      406.2 secs

     total energy              =   -2326.92833837 Ry
     estimated scf accuracy    <       0.00000010 Ry

     iteration # 21     ecut=    80.00 Ry     beta= 0.30
     Davidson diagonalization with overlap
     ethr =  1.12E-10,  avg # of iterations =  1.5

     negative rho (up, down):  2.620E-04 0.000E+00

     total cpu time spent up to now is      422.8 secs

     total energy              =   -2326.92833877 Ry
     estimated scf accuracy    <       0.00000005 Ry

     iteration # 22     ecut=    80.00 Ry     beta= 0.30
     Davidson diagonalization with overlap
     ethr =  5.76E-11,  avg # of iterations =  2.0

     negative rho (up, down):  2.371E-04 0.000E+00

     total cpu time spent up to now is      441.2 secs

     total energy              =   -2326.92833829 Ry
     estimated scf accuracy    <       0.00000002 Ry

     iteration # 23     ecut=    80.00 Ry     beta= 0.30
     Davidson diagonalization with overlap
     ethr =  1.92E-11,  avg # of iterations =  2.7

     negative rho (up, down):  2.290E-04 0.000E+00

     total cpu time spent up to now is      462.5 secs

     End of self-consistent calculation

          k = 0.0000 0.0000 0.0000 ( 37787 PWs)   bands (ev):

   -61.9011 -61.8999 -48.2990 -48.2990 -48.2969 -48.2969 -48.2965 -48.2965
   -48.2946 -48.2946 -48.2540 -48.2540 -48.2520 -48.2520 -48.2509 -48.2509
   -48.2491 -48.2491 -48.2355 -48.2336 -48.2322 -48.2304 -36.0196 -36.0184
   -35.9042 -35.9042 -35.9025 -35.9025 -15.3004 -15.2924 -14.4842 -14.4734
    -6.4796  -6.4059  -3.4752  -3.3655  -3.3655  -3.3590  -3.3589  -3.2188
    -1.6717  -1.5039  -1.0693  -1.0692  -1.0660  -1.0660   0.2256   0.2256
     0.2296   0.2296   2.9435   2.9435   2.9481   2.9481   3.3836

          k = 0.0000 0.0722 0.0000 ( 37755 PWs)   bands (ev):

   -61.9002 -61.8990 -48.2990 -48.2988 -48.2969 -48.2967 -48.2965 -48.2963
   -48.2946 -48.2944 -48.2540 -48.2540 -48.2521 -48.2521 -48.2510 -48.2509
   -48.2492 -48.2491 -48.2354 -48.2335 -48.2321 -48.2303 -36.0173 -36.0161
   -35.9148 -35.9131 -35.9067 -35.9049 -15.2436 -15.2356 -14.4546 -14.4440
    -6.4019  -6.3281  -3.8920  -3.7918  -3.3335  -3.3269  -3.0118  -2.8622
    -1.6965  -1.5610  -1.2642  -1.2460  -1.2161  -1.2126   0.1068   0.1339
     0.3383   0.3422   2.6178   2.6377   2.8943   2.8999   3.5008

          k = 0.0000 0.1443 0.0000 ( 37697 PWs)   bands (ev):

   -61.8974 -61.8962 -48.2989 -48.2982 -48.2969 -48.2965 -48.2962 -48.2958
   -48.2946 -48.2939 -48.2542 -48.2541 -48.2523 -48.2521 -48.2511 -48.2510
   -48.2493 -48.2492 -48.2352 -48.2332 -48.2318 -48.2301 -36.0109 -36.0098
   -35.9450 -35.9432 -35.9136 -35.9119 -15.0772 -15.0693 -14.3681 -14.3580
    -6.1767  -6.1029  -4.3632  -4.2854  -3.2581  -3.2516  -2.7856  -2.6568
    -2.0984  -2.0610  -1.5101  -1.5035  -1.4996  -1.4026  -0.0330   0.0371
     0.5283   0.5324   1.9970   2.0735   2.7934   2.8008   3.7736

          k = 0.0000 0.2165 0.0000 ( 37653 PWs)   bands (ev):

   -61.8933 -61.8921 -48.2989 -48.2974 -48.2968 -48.2965 -48.2954 -48.2950
   -48.2945 -48.2931 -48.2545 -48.2542 -48.2525 -48.2522 -48.2514 -48.2511
   -48.2496 -48.2493 -48.2348 -48.2329 -48.2314 -48.2297 -36.0017 -36.0005
   -35.9894 -35.9877 -35.9240 -35.9222 -14.8142 -14.8065 -14.2312 -14.2219
    -5.8355  -5.7633  -4.7822  -4.7219  -3.2667  -3.2550  -3.2064  -3.2000
    -2.4998  -2.3826  -1.7271  -1.7228  -1.5999  -1.5191  -0.0790   0.0170
     0.6339   0.6386   1.5952   1.7560   2.7268   2.7361   4.1438

          k = 0.0000 0.2887 0.0000 ( 37721 PWs)   bands (ev):

   -61.8884 -61.8873 -48.2989 -48.2968 -48.2966 -48.2964 -48.2945 -48.2945
   -48.2941 -48.2922 -48.2548 -48.2543 -48.2529 -48.2523 -48.2516 -48.2512
   -48.2498 -48.2494 -48.2343 -48.2324 -48.2310 -48.2292 -36.0425 -36.0407
   -35.9898 -35.9887 -35.9361 -35.9344 -14.4807 -14.4735 -14.0527 -14.0444
    -5.5177  -5.4583  -5.0180  -4.9639  -4.2851  -4.2795  -3.2607  -3.2546
    -2.6695  -2.5819  -1.8365  -1.7907  -1.7706  -1.7658  -0.0081   0.1025
     0.6385   0.6434   1.6630   1.9027   2.7269   2.7381   4.5997

          k = 0.0000 0.3608 0.0000 ( 37749 PWs)   bands (ev):

   -61.8836 -61.8824 -48.2989 -48.2968 -48.2964 -48.2957 -48.2945 -48.2936
   -48.2932 -48.2913 -48.2551 -48.2544 -48.2532 -48.2525 -48.2519 -48.2513
   -48.2501 -48.2495 -48.2339 -48.2320 -48.2305 -48.2288 -36.0944 -36.0926
   -35.9785 -35.9774 -35.9483 -35.9466 -14.1320 -14.1254 -13.8325 -13.8254
    -5.6170  -5.5888  -5.2454  -5.2348  -4.7560  -4.6996  -3.4092  -3.4033
    -3.0125  -2.9568  -2.0977  -2.0610  -1.6654  -1.6601   0.2536   0.3564
     0.6155   0.6197   2.0586   2.3385   2.7624   2.7758   5.0876

          k = 0.0000 0.4330 0.0000 ( 37785 PWs)   bands (ev):

   -61.8795 -61.8783 -48.2989 -48.2968 -48.2964 -48.2949 -48.2945 -48.2928
   -48.2924 -48.2905 -48.2554 -48.2545 -48.2535 -48.2526 -48.2521 -48.2514
   -48.2503 -48.2496 -48.2335 -48.2316 -48.2301 -48.2284 -36.1382 -36.1363
   -35.9688 -35.9677 -35.9586 -35.9569 -13.8675 -13.8619 -13.5529 -13.5469
    -6.2051  -6.1990  -5.5955  -5.5661  -4.5525  -4.5232  -3.5684  -3.5625
    -3.2669  -3.2111  -2.2666  -2.2388  -1.5319  -1.5258   0.6304   0.6310
     0.6335   0.7086   2.5729   2.7980   2.8133   2.8397   5.0747

          k = 0.0000 0.5052 0.0000 ( 37822 PWs)   bands (ev):

   -61.8767 -61.8755 -48.2989 -48.2968 -48.2964 -48.2944 -48.2944 -48.2923
   -48.2919 -48.2900 -48.2556 -48.2546 -48.2537 -48.2526 -48.2522 -48.2514
   -48.2504 -48.2496 -48.2332 -48.2313 -48.2299 -48.2282 -36.1672 -36.1654
   -35.9655 -35.9637 -35.9624 -35.9613 -13.7218 -13.7170 -13.2904 -13.2857
    -6.7627  -6.7566  -5.6123  -5.5918  -4.7135  -4.6954  -3.6804  -3.6746
    -3.1457  -3.0923  -2.3897  -2.3719  -1.4451  -1.4381   0.6797   0.6825
     0.9889   1.0346   2.8199   2.8366   3.0501   3.2356   4.5762

          k = 0.0000-0.5774 0.0000 ( 37832 PWs)   bands (ev):

   -61.8757 -61.8746 -48.2989 -48.2969 -48.2964 -48.2944 -48.2942 -48.2921
   -48.2918 -48.2898 -48.2557 -48.2546 -48.2537 -48.2526 -48.2523 -48.2514
   -48.2505 -48.2496 -48.2331 -48.2312 -48.2298 -48.2281 -36.1774 -36.1755
   -35.9679 -35.9661 -35.9601 -35.9590 -13.6741 -13.6696 -13.1834 -13.1795
    -6.9679  -6.9620  -5.5773  -5.5678  -4.8567  -4.8375  -3.7201  -3.7143
    -3.0114  -2.9690  -2.4566  -2.4419  -1.4175  -1.4102   0.7072   0.7101
     1.1478   1.1701   2.8269   2.8441   3.3064   3.4098   4.2438

          k = 0.0625 0.1083 0.0000 ( 37709 PWs)   bands (ev):

   -61.8983 -61.8971 -48.2989 -48.2984 -48.2969 -48.2965 -48.2964 -48.2960
   -48.2946 -48.2941 -48.2542 -48.2541 -48.2522 -48.2521 -48.2511 -48.2510
   -48.2493 -48.2492 -48.2352 -48.2333 -48.2319 -48.2302 -36.0130 -36.0118
   -35.9349 -35.9332 -35.9117 -35.9099 -15.1319 -15.1240 -14.3966 -14.3863
    -6.2501  -6.1762  -4.2378  -4.1542  -3.2869  -3.2804  -2.8136  -2.6680
    -1.8998  -1.8600  -1.5113  -1.4961  -1.4216  -1.3345   0.0332   0.0918
     0.4285   0.4319   2.2350   2.2905   2.7526   2.7546   3.6921

          k = 0.0625 0.1804 0.0000 ( 37703 PWs)   bands (ev):

   -61.8949 -61.8937 -48.2989 -48.2978 -48.2968 -48.2965 -48.2957 -48.2953
   -48.2945 -48.2934 -48.2544 -48.2541 -48.2524 -48.2522 -48.2513 -48.2511
   -48.2495 -48.2493 -48.2349 -48.2330 -48.2316 -48.2299 -36.0051 -36.0039
   -35.9715 -35.9698 -35.9211 -35.9194 -14.9168 -14.9090 -14.2850 -14.2754
    -5.9620  -5.8886  -4.6409  -4.5749  -3.2812  -3.2749  -2.8496  -2.7861
    -2.4809  -2.4310  -1.7764  -1.7396  -1.4610  -1.3654   0.0209   0.1000
     0.4255   0.4365   1.8885   1.9996   2.5769   2.5825   4.0061

          k = 0.0625 0.2526 0.0000 ( 37702 PWs)   bands (ev):

   -61.8904 -61.8892 -48.2988 -48.2970 -48.2968 -48.2964 -48.2949 -48.2945
   -48.2945 -48.2926 -48.2547 -48.2542 -48.2527 -48.2523 -48.2515 -48.2512
   -48.2497 -48.2494 -48.2345 -48.2326 -48.2312 -48.2294 -36.0192 -36.0175
   -35.9944 -35.9933 -35.9335 -35.9318 -14.6165 -14.6091 -14.1284 -14.1197
    -5.5929  -5.5236  -4.9773  -4.9241  -3.8402  -3.8356  -3.2307  -3.2188
    -2.6369  -2.5718  -1.9831  -1.9507  -1.4781  -1.4166  -0.0482   0.0352
     0.4906   0.5311   1.7558   1.9154   2.5419   2.5644   4.4181

          k = 0.0625 0.3248 0.0000 ( 37734 PWs)   bands (ev):

   -61.8855 -61.8844 -48.2988 -48.2968 -48.2963 -48.2961 -48.2944 -48.2940
   -48.2936 -48.2917 -48.2550 -48.2544 -48.2531 -48.2524 -48.2518 -48.2513
   -48.2500 -48.2495 -48.2341 -48.2321 -48.2307 -48.2290 -36.0702 -36.0684
   -35.9831 -35.9820 -35.9469 -35.9452 -14.2678 -14.2609 -13.9341 -13.9265
    -5.4717  -5.4283  -4.9509  -4.9060  -4.7902  -4.7723  -3.4696  -3.4584
    -2.7531  -2.7046  -2.2879  -2.2753  -1.4551  -1.4200  -0.0008   0.0858
     0.6405   0.6754   1.8746   2.0577   2.6184   2.6823   4.9064

          k = 0.0625 0.3969 0.0000 ( 37770 PWs)   bands (ev):

   -61.8810 -61.8799 -48.2988 -48.2967 -48.2963 -48.2953 -48.2944 -48.2932
   -48.2928 -48.2909 -48.2553 -48.2545 -48.2534 -48.2525 -48.2520 -48.2514
   -48.2502 -48.2496 -48.2336 -48.2317 -48.2303 -48.2286 -36.1169 -36.1151
   -35.9727 -35.9716 -35.9592 -35.9574 -13.9512 -13.9451 -13.6892 -13.6827
    -5.8214  -5.8146  -5.4986  -5.4706  -4.5852  -4.5394  -3.7163  -3.7020
    -3.0087  -2.9760  -2.5072  -2.4927  -1.3784  -1.3596   0.2078   0.2707
     0.7984   0.8297   2.1788   2.3090   2.7566   2.8940   5.3289

          k = 0.0625 0.4691 0.0000 ( 37798 PWs)   bands (ev):

   -61.8776 -61.8764 -48.2988 -48.2967 -48.2962 -48.2947 -48.2943 -48.2926
   -48.2922 -48.2903 -48.2555 -48.2546 -48.2536 -48.2526 -48.2522 -48.2514
   -48.2504 -48.2496 -48.2333 -48.2314 -48.2300 -48.2282 -36.1524 -36.1506
   -35.9690 -35.9673 -35.9643 -35.9632 -13.7531 -13.7479 -13.4030 -13.3977
    -6.4759  -6.4698  -5.6033  -5.5787  -4.5658  -4.5465  -3.8104  -3.7957
    -3.1270  -3.0881  -2.6114  -2.5994  -1.3328  -1.3245   0.4663   0.4982
     0.9799   1.0107   2.4502   2.4923   2.9810   3.1581   5.0336

          k = 0.0625 0.5413 0.0000 ( 37791 PWs)   bands (ev):

   -61.8757 -61.8746 -48.2988 -48.2967 -48.2962 -48.2943 -48.2943 -48.2923
   -48.2919 -48.2900 -48.2556 -48.2546 -48.2537 -48.2527 -48.2523 -48.2515
   -48.2504 -48.2497 -48.2331 -48.2312 -48.2298 -48.2281 -36.1716 -36.1697
   -35.9739 -35.9721 -35.9601 -35.9590 -13.6595 -13.6549 -13.2072 -13.2031
    -6.8627  -6.8568  -5.5801  -5.5669  -4.7751  -4.7563  -3.8236  -3.8168
    -3.0131  -2.9762  -2.6815  -2.6741  -1.3317  -1.3276   0.6591   0.6683
     1.1128   1.1357   2.5649   2.5792   3.2425   3.3606   4.5309

          k = 0.1250 0.2165 0.0000 ( 37731 PWs)   bands (ev):

   -61.8911 -61.8899 -48.2988 -48.2972 -48.2967 -48.2964 -48.2951 -48.2947
   -48.2944 -48.2928 -48.2546 -48.2542 -48.2527 -48.2523 -48.2515 -48.2512
   -48.2497 -48.2494 -48.2346 -48.2327 -48.2312 -48.2295 -36.0094 -36.0076
   -35.9962 -35.9951 -35.9341 -35.9323 -14.6631 -14.6556 -14.1543 -14.1455
    -5.6250  -5.5529  -4.9453  -4.8915  -3.6984  -3.6932  -3.0404  -2.9874
    -2.8681  -2.8634  -1.9660  -1.9064  -1.3689  -1.2827   0.0293   0.0646
     0.2696   0.3589   2.0918   2.1771   2.1850   2.2555   4.3590

          k = 0.1250 0.2887 0.0000 ( 37723 PWs)   bands (ev):

   -61.8866 -61.8854 -48.2987 -48.2966 -48.2964 -48.2962 -48.2944 -48.2943
   -48.2940 -48.2921 -48.2549 -48.2543 -48.2530 -48.2524 -48.2517 -48.2513
   -48.2499 -48.2495 -48.2342 -48.2322 -48.2308 -48.2291 -36.0529 -36.0511
   -35.9859 -35.9848 -35.9500 -35.9483 -14.3404 -14.3333 -13.9864 -13.9786
    -5.3037  -5.2505  -5.1090  -5.0514  -4.4662  -4.4617  -3.4765  -3.4529
    -2.9603  -2.9513  -2.2192  -2.1864  -1.2350  -1.1679  -0.1989  -0.1309
     0.5654   0.6415   1.8528   1.8845   2.3975   2.5721   4.8105

          k = 0.1250 0.3608 0.0000 ( 37761 PWs)   bands (ev):

   -61.8821 -61.8809 -48.2985 -48.2965 -48.2961 -48.2957 -48.2942 -48.2936
   -48.2932 -48.2913 -48.2552 -48.2545 -48.2532 -48.2525 -48.2519 -48.2514
   -48.2501 -48.2496 -48.2337 -48.2318 -48.2304 -48.2287 -36.0958 -36.0940
   -35.9761 -35.9749 -35.9658 -35.9641 -13.9999 -13.9935 -13.7848 -13.7780
    -5.4890  -5.4629  -5.2687  -5.2600  -4.6988  -4.6398  -3.8603  -3.8439
    -3.0597  -3.0510  -2.6399  -2.6249  -1.0931  -1.0477  -0.1663  -0.0940
     0.8605   0.9080   1.7621   1.8102   2.6904   2.8898   5.3191

          k = 0.1250 0.4330 0.0000 ( 37768 PWs)   bands (ev):

   -61.8783 -61.8771 -48.2984 -48.2964 -48.2959 -48.2951 -48.2940 -48.2930
   -48.2926 -48.2907 -48.2554 -48.2546 -48.2535 -48.2527 -48.2521 -48.2515
   -48.2503 -48.2497 -48.2334 -48.2315 -48.2300 -48.2283 -36.1319 -36.1300
   -35.9811 -35.9794 -35.9658 -35.9647 -13.7493 -13.7439 -13.5210 -13.5154
    -6.0670  -6.0614  -5.5372  -5.5115  -4.4133  -4.3842  -4.0915  -4.0667
    -3.1704  -3.1638  -2.9892  -2.9727  -1.0505  -1.0246   0.0845   0.1417
     1.0629   1.0862   1.8709   1.9192   2.9701   3.1529   5.5134

          k = 0.1250 0.5052 0.0000 ( 37794 PWs)   bands (ev):

   -61.8757 -61.8746 -48.2984 -48.2963 -48.2959 -48.2947 -48.2939 -48.2926
   -48.2922 -48.2903 -48.2556 -48.2547 -48.2536 -48.2527 -48.2522 -48.2515
   -48.2504 -48.2497 -48.2331 -48.2312 -48.2298 -48.2281 -36.1558 -36.1539
   -35.9902 -35.9884 -35.9602 -35.9591 -13.6169 -13.6122 -13.2714 -13.2670
    -6.5705  -6.5647  -5.5657  -5.5492  -4.5791  -4.5621  -4.0398  -4.0226
    -3.2508  -3.2461  -3.0569  -3.0332  -1.1025  -1.0865   0.4345   0.4687
     1.1176   1.1302   2.0460   2.0778   3.1814   3.3000   5.1213

          k = 0.1250 0.5774 0.0000 ( 37780 PWs)   bands (ev):

   -61.8748 -61.8737 -48.2984 -48.2963 -48.2958 -48.2945 -48.2939 -48.2924
   -48.2921 -48.2902 -48.2556 -48.2547 -48.2537 -48.2528 -48.2523 -48.2515
   -48.2505 -48.2497 -48.2331 -48.2312 -48.2297 -48.2280 -36.1641 -36.1623
   -35.9934 -35.9917 -35.9581 -35.9570 -13.5731 -13.5687 -13.1718 -13.1680
    -6.7541  -6.7482  -5.5535  -5.5455  -4.6944  -4.6758  -4.0327  -4.0221
    -3.2795  -3.2758  -3.0101  -2.9894  -1.1407  -1.1264   0.6505   0.6576
     1.0671   1.0827   2.1446   2.1458   3.2614   3.3445   4.8824

          k = 0.1875 0.3248 0.0000 ( 37725 PWs)   bands (ev):

   -61.8825 -61.8813 -48.2984 -48.2963 -48.2960 -48.2958 -48.2940 -48.2938
   -48.2934 -48.2915 -48.2551 -48.2545 -48.2532 -48.2525 -48.2519 -48.2514
   -48.2501 -48.2496 -48.2338 -48.2319 -48.2304 -48.2287 -36.0863 -36.0845
   -35.9782 -35.9769 -35.9693 -35.9677 -14.0153 -14.0088 -13.8195 -13.8126
    -5.3611  -5.3272  -5.0978  -5.0934  -4.7882  -4.7275  -3.8659  -3.8449
    -3.3381  -3.3333  -2.5182  -2.5079  -0.9345  -0.8729  -0.3442  -0.2730
     0.8518   0.9133   1.5930   1.6071   2.6718   2.8864   5.2945

          k = 0.1875 0.3969 0.0000 ( 37753 PWs)   bands (ev):

   -61.8787 -61.8775 -48.2981 -48.2961 -48.2957 -48.2954 -48.2937 -48.2934
   -48.2930 -48.2911 -48.2553 -48.2546 -48.2534 -48.2527 -48.2521 -48.2515
   -48.2502 -48.2497 -48.2334 -48.2315 -48.2301 -48.2283 -36.1151 -36.1132
   -35.9934 -35.9916 -35.9667 -35.9655 -13.7119 -13.7063 -13.6214 -13.6155
    -5.6977  -5.6931  -5.4594  -5.4344  -4.3842  -4.3338  -4.2148  -4.1970
    -3.6642  -3.6591  -2.9130  -2.9105  -0.7176  -0.6763  -0.2717  -0.2102
     1.0857   1.1205   1.5003   1.5372   2.9723   3.1580   5.7636

          k = 0.1875 0.4691 0.0000 ( 37759 PWs)   bands (ev):

   -61.8757 -61.8746 -48.2979 -48.2958 -48.2954 -48.2951 -48.2935 -48.2930
   -48.2926 -48.2907 -48.2555 -48.2547 -48.2535 -48.2528 -48.2522 -48.2516
   -48.2504 -48.2498 -48.2331 -48.2312 -48.2298 -48.2281 -36.1360 -36.1341
   -36.0105 -36.0087 -35.9602 -35.9591 -13.5509 -13.5461 -13.3586 -13.3538
    -6.1823  -6.1771  -5.5222  -5.5058  -4.4377  -4.4218  -4.1358  -4.1059
    -3.8908  -3.8836  -3.1842  -3.1793  -0.7598  -0.7346   0.0798   0.1206
     1.1376   1.1504   1.6411   1.6952   3.1696   3.2769   5.6153

          k = 0.1875 0.5413 0.0000 ( 37793 PWs)   bands (ev):

   -61.8742 -61.8730 -48.2978 -48.2957 -48.2953 -48.2949 -48.2934 -48.2928
   -48.2925 -48.2906 -48.2555 -48.2548 -48.2536 -48.2529 -48.2523 -48.2516
   -48.2505 -48.2498 -48.2330 -48.2311 -48.2297 -48.2279 -36.1469 -36.1450
   -36.0201 -36.0183 -35.9566 -35.9555 -13.4729 -13.4686 -13.1886 -13.1848
    -6.4600  -6.4542  -5.5465  -5.5383  -4.5315  -4.5148  -4.1709  -4.1561
    -3.9653  -3.9586  -3.2074  -3.1985  -0.8447  -0.8251   0.4590   0.4759
     0.9924   1.0011   1.8600   1.8961   3.1883   3.2457   5.4374

          k = 0.2500 0.4330 0.0000 ( 37711 PWs)   bands (ev):

   -61.8757 -61.8746 -48.2976 -48.2956 -48.2954 -48.2950 -48.2934 -48.2931
   -48.2929 -48.2909 -48.2554 -48.2548 -48.2535 -48.2528 -48.2522 -48.2516
   -48.2504 -48.2498 -48.2331 -48.2312 -48.2298 -48.2281 -36.1255 -36.1237
   -36.0211 -36.0193 -35.9602 -35.9591 -13.4892 -13.4844 -13.4289 -13.4239
    -5.9616  -5.9567  -5.4898  -5.4749  -4.4214  -4.4019  -4.2523  -4.2487
    -4.0642  -4.0278  -3.2818  -3.2732  -0.3698  -0.3273  -0.3151  -0.2915
     1.1280   1.1492   1.5136   1.5739   3.1724   3.2732   5.8948

          k = 0.2500 0.5052 0.0000 ( 37776 PWs)   bands (ev):

   -61.8738 -61.8726 -48.2973 -48.2954 -48.2952 -48.2947 -48.2933 -48.2929
   -48.2928 -48.2910 -48.2555 -48.2549 -48.2535 -48.2530 -48.2523 -48.2517
   -48.2505 -48.2498 -48.2330 -48.2311 -48.2296 -48.2279 -36.1281 -36.1262
   -36.0442 -36.0424 -35.9557 -35.9547 -13.3790 -13.3748 -13.2414 -13.2375
    -6.1097  -6.1042  -5.5376  -5.5301  -4.6726  -4.6680  -4.3976  -4.3792
    -3.9813  -3.9636  -3.5182  -3.5123  -0.4513  -0.4271   0.0504   0.0651
     0.9571   0.9629   1.7956   1.8713   3.1395   3.1586   5.6808

          k = 0.2500 0.5774 0.0000 ( 37791 PWs)   bands (ev):

   -61.8731 -61.8719 -48.2971 -48.2954 -48.2950 -48.2945 -48.2934 -48.2929
   -48.2926 -48.2910 -48.2555 -48.2549 -48.2535 -48.2530 -48.2523 -48.2517
   -48.2505 -48.2499 -48.2329 -48.2310 -48.2296 -48.2279 -36.1275 -36.1257
   -36.0537 -36.0519 -35.9542 -35.9531 -13.3402 -13.3362 -13.1713 -13.1678
    -6.1528  -6.1470  -5.5667  -5.5612  -4.8255  -4.8211  -4.2196  -4.2063
    -4.1890  -4.1801  -3.5178  -3.5141  -0.5000  -0.4796   0.3105   0.3216
     0.7500   0.7565   2.0290   2.0736   3.0063   3.0183   5.5971

          k = 0.3125 0.5413 0.0000 ( 37789 PWs)   bands (ev):

   -61.8727 -61.8716 -48.2966 -48.2958 -48.2946 -48.2941 -48.2937 -48.2933
   -48.2922 -48.2914 -48.2554 -48.2550 -48.2535 -48.2531 -48.2524 -48.2517
   -48.2505 -48.2499 -48.2329 -48.2310 -48.2296 -48.2278 -36.1100 -36.1082
   -36.0762 -36.0744 -35.9533 -35.9523 -13.2609 -13.2569 -13.1986 -13.1952
    -5.8488  -5.8424  -5.5758  -5.5714  -5.2656  -5.2600  -4.2312  -4.2131
    -3.8933  -3.8853  -3.8805  -3.8694  -0.1653  -0.1401   0.0179   0.0340
     0.6526   0.6552   2.2219   2.2967   2.8033   2.8476   5.5619

     the Fermi energy is    -0.3041 ev

!    total energy              =   -2326.92833828 Ry
     total all-electron energy =    -35628.676167 Ry
     estimated scf accuracy    <          3.3E-09 Ry
     smearing contrib. (-TS)   =       0.00086615 Ry
     internal energy E=F+TS    =   -2326.92920443 Ry

     The total energy is F=E-TS. E is the sum of the following terms:
     one-electron contribution =  -26101.38151536 Ry
     hartree contribution      =   13038.90200210 Ry
     xc contribution           =    -152.42642122 Ry
     ewald contribution        =   11898.49109499 Ry
     one-center paw contrib.   =   -1010.51436495 Ry

     convergence has been achieved in  23 iterations

     Writing all to output data dir ./tmp/cleave_008/mose2_cleave_008.save/ :
     XML data file, charge density, pseudopotentials, collected wavefunctions

     init_run     :     11.35s CPU     11.74s WALL (       1 calls)
     electrons    :    440.91s CPU    450.70s WALL (       1 calls)

     Called by init_run:
     wfcinit      :      5.19s CPU      5.31s WALL (       1 calls)
     potinit      :      5.48s CPU      5.66s WALL (       1 calls)
     hinit0       :      0.05s CPU      0.06s WALL (       1 calls)

     Called by electrons:
     c_bands      :    367.73s CPU    372.09s WALL (      24 calls)
     sum_band     :     48.24s CPU     50.73s WALL (      24 calls)
     v_of_rho     :     14.37s CPU     15.33s WALL (      24 calls)
     newd         :      9.00s CPU     11.12s WALL (      24 calls)
     PAW_pot      :      1.48s CPU      1.53s WALL (      24 calls)
     mix_rho      :      5.72s CPU      5.77s WALL (      24 calls)
     vdW_kernel   :      5.04s CPU      5.18s WALL (       1 calls)

     Called by c_bands:
     init_us_2    :      2.72s CPU      2.73s WALL (    1470 calls)
     cegterg      :    358.52s CPU    362.66s WALL (     720 calls)

     Called by *egterg:
     cdiaghg      :     11.35s CPU     11.37s WALL (    3736 calls)
     h_psi        :    152.10s CPU    153.40s WALL (    3796 calls)
     s_psi        :     28.04s CPU     28.06s WALL (    3796 calls)
     g_psi        :      0.47s CPU      0.47s WALL (    3046 calls)

     Called by h_psi:
     h_psi:calbec :     46.32s CPU     46.97s WALL (    3796 calls)
     vloc_psi     :     71.32s CPU     71.93s WALL (    3796 calls)
                                        0.00s GPU  (    3796 calls)
     add_vuspsi   :     33.96s CPU     34.00s WALL (    3796 calls)

     General routines
     calbec       :     66.05s CPU     66.96s WALL (    4516 calls)
     fft          :      5.88s CPU      6.00s WALL (    1511 calls)
     ffts         :      2.09s CPU      2.10s WALL (    2754 calls)
     fftw         :     80.08s CPU     80.78s WALL (  217018 calls)
     interpolate  :      0.11s CPU      0.11s WALL (      24 calls)

     Parallel routines

     PWSCF        :   7m32.91s CPU   7m43.31s WALL


   This run was terminated on:   9:57:18  20Jun2026            

=------------------------------------------------------------------------------=
   JOB DONE.
=------------------------------------------------------------------------------=
Note: The following floating-point exceptions are signalling: IEEE_UNDERFLOW_FLAG IEEE_DENORMAL
Note: The following floating-point exceptions are signalling: IEEE_UNDERFLOW_FLAG IEEE_DENORMAL
Note: The following floating-point exceptions are signalling: IEEE_UNDERFLOW_FLAG IEEE_DENORMAL
Note: The following floating-point exceptions are signalling: IEEE_UNDERFLOW_FLAG IEEE_DENORMAL
Note: The following floating-point exceptions are signalling: IEEE_UNDERFLOW_FLAG IEEE_DENORMAL
Note: The following floating-point exceptions are signalling: IEEE_UNDERFLOW_FLAG IEEE_DENORMAL
Note: The following floating-point exceptions are signalling: IEEE_UNDERFLOW_FLAG IEEE_DENORMAL
Note: The following floating-point exceptions are signalling: IEEE_UNDERFLOW_FLAG IEEE_DENORMAL
Note: The following floating-point exceptions are signalling: IEEE_UNDERFLOW_FLAG IEEE_DENORMAL
Note: The following floating-point exceptions are signalling: IEEE_UNDERFLOW_FLAG IEEE_DENORMAL
Note: The following floating-point exceptions are signalling: IEEE_UNDERFLOW_FLAG IEEE_DENORMAL
Note: The following floating-point exceptions are signalling: IEEE_UNDERFLOW_FLAG IEEE_DENORMAL
Note: The following floating-point exceptions are signalling: IEEE_UNDERFLOW_FLAG IEEE_DENORMAL
Note: The following floating-point exceptions are signalling: IEEE_UNDERFLOW_FLAG IEEE_DENORMAL
Note: The following floating-point exceptions are signalling: IEEE_UNDERFLOW_FLAG IEEE_DENORMAL
Note: The following floating-point exceptions are signalling: IEEE_UNDERFLOW_FLAG IEEE_DENORMAL
Note: The following floating-point exceptions are signalling: IEEE_UNDERFLOW_FLAG IEEE_DENORMAL
Note: The following floating-point exceptions are signalling: IEEE_UNDERFLOW_FLAG IEEE_DENORMAL
Note: The following floating-point exceptions are signalling: IEEE_UNDERFLOW_FLAG IEEE_DENORMAL
Note: The following floating-point exceptions are signalling: IEEE_UNDERFLOW_FLAG IEEE_DENORMAL
Note: The following floating-point exceptions are signalling: IEEE_UNDERFLOW_FLAG IEEE_DENORMAL
Note: The following floating-point exceptions are signalling: IEEE_UNDERFLOW_FLAG IEEE_DENORMAL
Note: The following floating-point exceptions are signalling: IEEE_UNDERFLOW_FLAG IEEE_DENORMAL
Note: The following floating-point exceptions are signalling: IEEE_UNDERFLOW_FLAG IEEE_DENORMAL
