
     Program PWSCF v.7.5 starts on 20Jun2026 at 11:21: 4 

     This program is part of the open-source Quantum ESPRESSO suite
     for quantum simulation of materials; please cite
         "P. Giannozzi et al., J. Phys.:Condens. Matter 21 395502 (2009);
         "P. Giannozzi et al., J. Phys.:Condens. Matter 29 465901 (2017);
         "P. Giannozzi et al., J. Chem. Phys. 152 154105 (2020);
          URL http://www.quantum-espresso.org", 
     in publications or presentations arising from this work. More details at
     http://www.quantum-espresso.org/quote

     Parallel version (MPI), running on    24 processors

     MPI processes distributed on     1 nodes
     6467 MiB available memory on the printing compute node when the environment starts

     Waiting for input...
     Reading input from standard input

     Current dimensions of program PWSCF are:
     Max number of different atomic species (ntypx) = 10
     Max number of k-points (npk) =  40000
     Max angular momentum in pseudopotentials (lmaxx) =  4
     file Mo.pbe-spn-kjpaw_psl.1.0.0.UPF: wavefunction(s)  4S 4D renormalized
     file Se.pbe-dn-kjpaw_psl.1.0.0.UPF: wavefunction(s)  4S 4P 3D renormalized

     IMPORTANT: XC functional enforced from input :
     Exchange-correlation= VDW-DF2-B86R
                           (   1   4  26   0   2   0   0)
     Any further DFT definition will be discarded
     Please, verify this is what you really want


     R & G space division:  proc/nbgrp/npool/nimage =      24
     Subspace diagonalization in iterative solution of the eigenvalue problem:
     a serial algorithm will be used


     Parallelization info
     --------------------
     sticks:   dense  smooth     PW     G-vecs:    dense   smooth      PW
     Min          69      35     10                35537    12585    1924
     Max          70      36     11                35620    12648    1981
     Sum        1675     847    241               853823   302525   46513

     Using Slab Decomposition



     bravais-lattice index     =            4
     lattice parameter (alat)  =       6.1794  a.u.
     unit-cell volume          =    3124.5879 (a.u.)^3
     number of atoms/cell      =            6
     number of atomic types    =            2
     number of electrons       =        92.00
     number of Kohn-Sham states=           55
     kinetic-energy cutoff     =      80.0000  Ry
     charge density cutoff     =     640.0000  Ry
     scf convergence threshold =      1.0E-08
     mixing beta               =       0.3000
     number of iterations used =            8  local-TF  mixing
     Exchange-correlation= VDW-DF2-B86R
                           (   1   4  26   0   2   0   0)

     celldm(1)=   6.179404  celldm(2)=   0.000000  celldm(3)=  15.290520
     celldm(4)=   0.000000  celldm(5)=   0.000000  celldm(6)=   0.000000

     crystal axes: (cart. coord. in units of alat)
               a(1) = (   1.000000   0.000000   0.000000 )  
               a(2) = (  -0.500000   0.866025   0.000000 )  
               a(3) = (   0.000000   0.000000  15.290520 )  

     reciprocal axes: (cart. coord. in units 2 pi/alat)
               b(1) = (  1.000000  0.577350 -0.000000 )  
               b(2) = (  0.000000  1.154701  0.000000 )  
               b(3) = (  0.000000 -0.000000  0.065400 )  


     PseudoPot. # 1 for Mo read from file:
     ./pseudo/Mo.pbe-spn-kjpaw_psl.1.0.0.UPF
     MD5 check sum: 4396e0c640fcce5c25f020efccf1ab12
     Pseudo is Projector augmented-wave + core cor, Zval = 14.0
     Generated using &quot;atomic&quot; code by A. Dal Corso  v.6.3
     Shape of augmentation charge: PSQ
     Using radial grid of 1229 points,  6 beta functions with: 
                l(1) =   0
                l(2) =   0
                l(3) =   1
                l(4) =   1
                l(5) =   2
                l(6) =   2
     Q(r) pseudized with 0 coefficients 


     PseudoPot. # 2 for Se read from file:
     ./pseudo/Se.pbe-dn-kjpaw_psl.1.0.0.UPF
     MD5 check sum: ac240dd2bae32a30e0bf3a38df9c8785
     Pseudo is Projector augmented-wave + core cor, Zval = 16.0
     Generated using &quot;atomic&quot; code by A. Dal Corso  v.6.3
     Shape of augmentation charge: PSQ
     Using radial grid of 1211 points,  6 beta functions with: 
                l(1) =   0
                l(2) =   0
                l(3) =   1
                l(4) =   1
                l(5) =   2
                l(6) =   2
     Q(r) pseudized with 0 coefficients 


     atomic species   valence    mass     pseudopotential
     Mo               14.00    95.96000     Mo( 1.00)
     Se               16.00    78.96000     Se( 1.00)

      6 Sym. Ops. (no inversion) found



   Cartesian axes

     site n.     atom                  positions (alat units)
         1        Se     tau(   1) = (  -0.0000005   0.5773506   6.1238532  )
         2        Mo     tau(   2) = (   0.0000000   0.0000000   6.6502752  )
         3        Se     tau(   3) = (   0.5000005   0.2886748   7.1775994  )
         4        Se     tau(   4) = (  -0.0000005   0.5773506   9.3355810  )
         5        Mo     tau(   5) = (   0.5000005   0.2886748   9.8627676  )
         6        Se     tau(   6) = (   0.0000000   0.0000000  10.3899083  )

     number of k points=    30  Methfessel-Paxton smearing, width (Ry)=  0.0200
                       cart. coord. in units 2pi/alat
        k(    1) = (   0.0000000   0.0000000   0.0000000), wk =   0.0078125
        k(    2) = (   0.0000000   0.0721688   0.0000000), wk =   0.0468750
        k(    3) = (   0.0000000   0.1443376   0.0000000), wk =   0.0468750
        k(    4) = (   0.0000000   0.2165064   0.0000000), wk =   0.0468750
        k(    5) = (   0.0000000   0.2886751   0.0000000), wk =   0.0468750
        k(    6) = (   0.0000000   0.3608439   0.0000000), wk =   0.0468750
        k(    7) = (   0.0000000   0.4330127   0.0000000), wk =   0.0468750
        k(    8) = (   0.0000000   0.5051815   0.0000000), wk =   0.0468750
        k(    9) = (   0.0000000  -0.5773503   0.0000000), wk =   0.0234375
        k(   10) = (   0.0625000   0.1082532   0.0000000), wk =   0.0468750
        k(   11) = (   0.0625000   0.1804220   0.0000000), wk =   0.0937500
        k(   12) = (   0.0625000   0.2525907   0.0000000), wk =   0.0937500
        k(   13) = (   0.0625000   0.3247595   0.0000000), wk =   0.0937500
        k(   14) = (   0.0625000   0.3969283   0.0000000), wk =   0.0937500
        k(   15) = (   0.0625000   0.4690971   0.0000000), wk =   0.0937500
        k(   16) = (   0.0625000   0.5412659   0.0000000), wk =   0.0937500
        k(   17) = (   0.1250000   0.2165064   0.0000000), wk =   0.0468750
        k(   18) = (   0.1250000   0.2886751   0.0000000), wk =   0.0937500
        k(   19) = (   0.1250000   0.3608439   0.0000000), wk =   0.0937500
        k(   20) = (   0.1250000   0.4330127   0.0000000), wk =   0.0937500
        k(   21) = (   0.1250000   0.5051815   0.0000000), wk =   0.0937500
        k(   22) = (   0.1250000   0.5773503   0.0000000), wk =   0.0468750
        k(   23) = (   0.1875000   0.3247595   0.0000000), wk =   0.0468750
        k(   24) = (   0.1875000   0.3969283   0.0000000), wk =   0.0937500
        k(   25) = (   0.1875000   0.4690971   0.0000000), wk =   0.0937500
        k(   26) = (   0.1875000   0.5412659   0.0000000), wk =   0.0937500
        k(   27) = (   0.2500000   0.4330127   0.0000000), wk =   0.0468750
        k(   28) = (   0.2500000   0.5051815   0.0000000), wk =   0.0937500
        k(   29) = (   0.2500000   0.5773503   0.0000000), wk =   0.0468750
        k(   30) = (   0.3125000   0.5412659   0.0000000), wk =   0.0468750

     Dense  grid:   853823 G-vectors     FFT dimensions: (  50,  50, 768)

     Smooth grid:   302525 G-vectors     FFT dimensions: (  36,  36, 540)

     Estimated max dynamical RAM per process >     171.88 MB

     Estimated total dynamical RAM >       4.03 GB

     Initial potential from superposition of free atoms

     starting charge      91.9979, renormalised to      92.0000

     negative rho (up, down):  1.738E-04 0.000E+00


     %%%%%%%%%%%%%%%%%%%%%%%%%%%%%%%%%%%%%%%%%%%%%%%%%%%%%%%%%%%%%%%%%%%%%%%%
     %                                                                      %
     % You are using vdW-DF, which was implemented by the Thonhauser group. %
     % Please cite the following two papers that made this development      %
     % possible and the two reviews that describe the various versions:     %
     %                                                                      %
     %   T. Thonhauser et al., PRL 115, 136402 (2015).                      %
     %   T. Thonhauser et al., PRB 76, 125112 (2007).                       %
     %   K. Berland et al., Rep. Prog. Phys. 78, 066501 (2015).             %
     %   D.C. Langreth et al., J. Phys.: Condens. Matter 21, 084203 (2009). %
     %                                                                      %
     % If you are calculating stress with vdW-DF, please also cite:         %
     %                                                                      %
     %   R. Sabatini et al., J. Phys.: Condens. Matter 24, 424209 (2012).   %
     %                                                                      %
     %%%%%%%%%%%%%%%%%%%%%%%%%%%%%%%%%%%%%%%%%%%%%%%%%%%%%%%%%%%%%%%%%%%%%%%%

     %%%%%%%%%%%%%%%%%%%%%%%%%%%%%%%%%%%%%%%%%%%%%%%%%%%%%%%%%%%%%%%%%%%%%%%%
     %                                                                      %
     %  vdW-DF NEWS:                                                        %
     %                                                                      %
     %  * vdW-DF3 is now available. DOI: 10.1021/acs.jctc.0c00471           %
     %    use with input_dft = 'vdW-DF3-opt1' or 'vdW-DF3-opt2'             %
     %                                                                      %
     %  * Unscreened and range-separated hybrid vdW-DF-cx functionals       %
     %    DOI: 10.1063/1.4986522 and 10.1088/1361-648X/ac2ad2               %
     %    use with input_dft = 'vdW-DF-cx0'    and 'vdW-DF-ahcx'            %
     %  * Unscreened and range-separated hybrid vdW-DF2-b86r functionals    %
     %    DOI: 10.1063/1.4986522 and DOI: 10.1103/PhysRevX.12.041003        %
     %    use with input_dft = 'vdW-DF2-br0' and 'vdW-DF2-ahbr'             %
     %                                                                      %
     %%%%%%%%%%%%%%%%%%%%%%%%%%%%%%%%%%%%%%%%%%%%%%%%%%%%%%%%%%%%%%%%%%%%%%%%


     Starting wfcs are   56 randomized atomic wfcs
     Checking if some PAW data can be deallocated... 

     total cpu time spent up to now is       12.1 secs

     per-process dynamical memory:    79.7 Mb

     Self-consistent Calculation

     iteration #  1     ecut=    80.00 Ry     beta= 0.30
     Davidson diagonalization with overlap
     ethr =  1.00E-02,  avg # of iterations =  4.5

     Threshold (ethr) on eigenvalues was too large:
     Diagonalizing with lowered threshold

     Davidson diagonalization with overlap
     ethr =  4.48E-04,  avg # of iterations =  2.8

     negative rho (up, down):  9.728E-05 0.000E+00

     total cpu time spent up to now is       50.3 secs

     total energy              =   -2326.96369990 Ry
     estimated scf accuracy    <       0.46036009 Ry

     iteration #  2     ecut=    80.00 Ry     beta= 0.30
     Davidson diagonalization with overlap
     ethr =  5.00E-04,  avg # of iterations =  1.1

     negative rho (up, down):  1.438E-04 0.000E+00

     total cpu time spent up to now is       66.1 secs

     total energy              =   -2326.91614657 Ry
     estimated scf accuracy    <       0.24575159 Ry

     iteration #  3     ecut=    80.00 Ry     beta= 0.30
     Davidson diagonalization with overlap
     ethr =  2.67E-04,  avg # of iterations =  2.9

     negative rho (up, down):  5.292E-05 0.000E+00

     total cpu time spent up to now is       84.6 secs

     total energy              =   -2326.92348368 Ry
     estimated scf accuracy    <       0.03141827 Ry

     iteration #  4     ecut=    80.00 Ry     beta= 0.30
     Davidson diagonalization with overlap
     ethr =  3.42E-05,  avg # of iterations =  8.4

     negative rho (up, down):  1.801E-05 0.000E+00

     total cpu time spent up to now is      106.3 secs

     total energy              =   -2326.92351116 Ry
     estimated scf accuracy    <       0.00970853 Ry

     iteration #  5     ecut=    80.00 Ry     beta= 0.30
     Davidson diagonalization with overlap
     c_bands:  1 eigenvalues not converged
     ethr =  1.06E-05,  avg # of iterations =  4.5

     negative rho (up, down):  4.449E-07 0.000E+00

     total cpu time spent up to now is      126.9 secs

     total energy              =   -2326.92286347 Ry
     estimated scf accuracy    <       0.00373541 Ry

     iteration #  6     ecut=    80.00 Ry     beta= 0.30
     Davidson diagonalization with overlap
     c_bands:  1 eigenvalues not converged
     ethr =  4.06E-06,  avg # of iterations =  8.1

     negative rho (up, down):  2.138E-07 0.000E+00

     total cpu time spent up to now is      150.6 secs

     total energy              =   -2326.92288205 Ry
     estimated scf accuracy    <       0.00129807 Ry

     iteration #  7     ecut=    80.00 Ry     beta= 0.30
     Davidson diagonalization with overlap
     ethr =  1.41E-06,  avg # of iterations =  3.8

     negative rho (up, down):  2.774E-07 0.000E+00

     total cpu time spent up to now is      169.1 secs

     total energy              =   -2326.92270348 Ry
     estimated scf accuracy    <       0.00116007 Ry

     iteration #  8     ecut=    80.00 Ry     beta= 0.30
     Davidson diagonalization with overlap
     ethr =  1.26E-06,  avg # of iterations =  1.9

     negative rho (up, down):  6.868E-08 0.000E+00

     total cpu time spent up to now is      186.8 secs

     total energy              =   -2326.92265650 Ry
     estimated scf accuracy    <       0.00091406 Ry

     iteration #  9     ecut=    80.00 Ry     beta= 0.30
     Davidson diagonalization with overlap
     ethr =  9.94E-07,  avg # of iterations =  1.8

     negative rho (up, down):  2.678E-03 0.000E+00

     total cpu time spent up to now is      204.5 secs

     total energy              =   -2326.92264909 Ry
     estimated scf accuracy    <       0.00070802 Ry

     iteration # 10     ecut=    80.00 Ry     beta= 0.30
     Davidson diagonalization with overlap
     ethr =  7.70E-07,  avg # of iterations =  2.5

     negative rho (up, down):  4.640E-03 0.000E+00

     total cpu time spent up to now is      222.4 secs

     total energy              =   -2326.92256719 Ry
     estimated scf accuracy    <       0.00055961 Ry

     iteration # 11     ecut=    80.00 Ry     beta= 0.30
     Davidson diagonalization with overlap
     ethr =  6.08E-07,  avg # of iterations =  4.2

     negative rho (up, down):  6.858E-03 0.000E+00

     total cpu time spent up to now is      241.1 secs

     total energy              =   -2326.92253090 Ry
     estimated scf accuracy    <       0.00037504 Ry

     iteration # 12     ecut=    80.00 Ry     beta= 0.30
     Davidson diagonalization with overlap
     ethr =  4.08E-07,  avg # of iterations =  4.5

     negative rho (up, down):  6.158E-03 0.000E+00

     total cpu time spent up to now is      259.9 secs

     total energy              =   -2326.92255255 Ry
     estimated scf accuracy    <       0.00020322 Ry

     iteration # 13     ecut=    80.00 Ry     beta= 0.30
     Davidson diagonalization with overlap
     ethr =  2.21E-07,  avg # of iterations =  1.0

     negative rho (up, down):  2.890E-03 0.000E+00

     total cpu time spent up to now is      276.0 secs

     total energy              =   -2326.92251254 Ry
     estimated scf accuracy    <       0.00015543 Ry

     iteration # 14     ecut=    80.00 Ry     beta= 0.30
     Davidson diagonalization with overlap
     ethr =  1.69E-07,  avg # of iterations =  2.0

     negative rho (up, down):  2.311E-03 0.000E+00

     total cpu time spent up to now is      295.0 secs

     total energy              =   -2326.92251140 Ry
     estimated scf accuracy    <       0.00008523 Ry

     iteration # 15     ecut=    80.00 Ry     beta= 0.30
     Davidson diagonalization with overlap
     ethr =  9.26E-08,  avg # of iterations =  1.0

     negative rho (up, down):  1.042E-03 0.000E+00

     total cpu time spent up to now is      310.4 secs

     total energy              =   -2326.92253610 Ry
     estimated scf accuracy    <       0.00006625 Ry

     iteration # 16     ecut=    80.00 Ry     beta= 0.30
     Davidson diagonalization with overlap
     ethr =  7.20E-08,  avg # of iterations =  2.0

     negative rho (up, down):  7.153E-04 0.000E+00

     total cpu time spent up to now is      328.5 secs

     total energy              =   -2326.92254753 Ry
     estimated scf accuracy    <       0.00004227 Ry

     iteration # 17     ecut=    80.00 Ry     beta= 0.30
     Davidson diagonalization with overlap
     ethr =  4.59E-08,  avg # of iterations =  2.0

     negative rho (up, down):  3.273E-04 0.000E+00

     total cpu time spent up to now is      346.8 secs

     total energy              =   -2326.92254877 Ry
     estimated scf accuracy    <       0.00002465 Ry

     iteration # 18     ecut=    80.00 Ry     beta= 0.30
     Davidson diagonalization with overlap
     ethr =  2.68E-08,  avg # of iterations =  2.0

     negative rho (up, down):  4.499E-04 0.000E+00

     total cpu time spent up to now is      365.2 secs

     total energy              =   -2326.92254786 Ry
     estimated scf accuracy    <       0.00001154 Ry

     iteration # 19     ecut=    80.00 Ry     beta= 0.30
     Davidson diagonalization with overlap
     ethr =  1.25E-08,  avg # of iterations =  2.0

     negative rho (up, down):  4.594E-04 0.000E+00

     total cpu time spent up to now is      384.7 secs

     total energy              =   -2326.92254915 Ry
     estimated scf accuracy    <       0.00000092 Ry

     iteration # 20     ecut=    80.00 Ry     beta= 0.30
     Davidson diagonalization with overlap
     ethr =  9.98E-10,  avg # of iterations =  2.3

     negative rho (up, down):  3.320E-04 0.000E+00

     total cpu time spent up to now is      404.7 secs

     total energy              =   -2326.92254945 Ry
     estimated scf accuracy    <       0.00000042 Ry

     iteration # 21     ecut=    80.00 Ry     beta= 0.30
     Davidson diagonalization with overlap
     ethr =  4.60E-10,  avg # of iterations =  2.0

     negative rho (up, down):  2.305E-04 0.000E+00

     total cpu time spent up to now is      423.9 secs

     total energy              =   -2326.92255081 Ry
     estimated scf accuracy    <       0.00000020 Ry

     iteration # 22     ecut=    80.00 Ry     beta= 0.30
     Davidson diagonalization with overlap
     ethr =  2.19E-10,  avg # of iterations =  2.3

     negative rho (up, down):  1.899E-04 0.000E+00

     total cpu time spent up to now is      442.9 secs

     total energy              =   -2326.92255231 Ry
     estimated scf accuracy    <       0.00000005 Ry

     iteration # 23     ecut=    80.00 Ry     beta= 0.30
     Davidson diagonalization with overlap
     ethr =  5.64E-11,  avg # of iterations =  3.0

     negative rho (up, down):  2.051E-04 0.000E+00

     total cpu time spent up to now is      463.5 secs

     End of self-consistent calculation

          k = 0.0000 0.0000 0.0000 ( 37787 PWs)   bands (ev):

   -61.8988 -61.8979 -48.2942 -48.2942 -48.2932 -48.2932 -48.2927 -48.2927
   -48.2918 -48.2918 -48.2488 -48.2488 -48.2476 -48.2476 -48.2473 -48.2473
   -48.2464 -48.2464 -48.2301 -48.2289 -48.2287 -48.2277 -36.0173 -36.0162
   -35.9019 -35.9019 -35.9006 -35.9006 -15.2966 -15.2931 -14.4783 -14.4768
    -6.4400  -6.4363  -3.3633  -3.3633  -3.3572  -3.3572  -3.3472  -3.3314
    -1.6019  -1.5846  -1.0670  -1.0670  -1.0641  -1.0641   0.2266   0.2267
     0.2294   0.2295   2.7345   2.9452   2.9452   2.9473   2.9474

          k = 0.0000 0.0722 0.0000 ( 37755 PWs)   bands (ev):

   -61.8978 -61.8969 -48.2942 -48.2940 -48.2932 -48.2930 -48.2927 -48.2925
   -48.2918 -48.2916 -48.2488 -48.2488 -48.2477 -48.2477 -48.2474 -48.2474
   -48.2464 -48.2464 -48.2300 -48.2288 -48.2286 -48.2276 -36.0150 -36.0140
   -35.9125 -35.9112 -35.9043 -35.9030 -15.2398 -15.2363 -14.4488 -14.4473
    -6.3623  -6.3586  -3.8373  -3.8307  -3.3313  -3.3252  -2.9403  -2.9299
    -1.6381  -1.6244  -1.2571  -1.2536  -1.2140  -1.2109   0.1165   0.1224
     0.3397   0.3421   2.5820   2.6327   2.8842   2.8966   2.8986

          k = 0.0000 0.1443 0.0000 ( 37697 PWs)   bands (ev):

   -61.8951 -61.8942 -48.2941 -48.2934 -48.2931 -48.2927 -48.2924 -48.2920
   -48.2918 -48.2911 -48.2490 -48.2489 -48.2478 -48.2477 -48.2476 -48.2474
   -48.2466 -48.2464 -48.2298 -48.2285 -48.2284 -48.2273 -36.0086 -36.0076
   -35.9426 -35.9413 -35.9112 -35.9099 -15.0734 -15.0700 -14.3627 -14.3610
    -6.1370  -6.1333  -4.3222  -4.3167  -3.2560  -3.2499  -2.7204  -2.7114
    -2.0808  -2.0769  -1.5015  -1.4980  -1.4640  -1.4534  -0.0061   0.0058
     0.5302   0.5320   2.0015   2.0444   2.7968   2.7987   3.1329

          k = 0.0000 0.2165 0.0000 ( 37653 PWs)   bands (ev):

   -61.8910 -61.8901 -48.2941 -48.2931 -48.2926 -48.2926 -48.2918 -48.2916
   -48.2912 -48.2903 -48.2493 -48.2490 -48.2481 -48.2479 -48.2478 -48.2475
   -48.2468 -48.2465 -48.2294 -48.2281 -48.2280 -48.2269 -35.9994 -35.9984
   -35.9871 -35.9857 -35.9216 -35.9203 -14.8105 -14.8072 -14.2263 -14.2244
    -5.7963  -5.7926  -4.7512  -4.7461  -3.2603  -3.2572  -3.2043  -3.1984
    -2.4411  -2.4331  -1.7251  -1.7214  -1.5629  -1.5559  -0.0385  -0.0246
     0.6366   0.6379   1.6368   1.6876   2.7314   2.7331   3.5072

          k = 0.0000 0.2887 0.0000 ( 37721 PWs)   bands (ev):

   -61.8861 -61.8852 -48.2941 -48.2931 -48.2926 -48.2917 -48.2917 -48.2908
   -48.2903 -48.2894 -48.2497 -48.2491 -48.2483 -48.2482 -48.2479 -48.2477
   -48.2470 -48.2466 -48.2289 -48.2277 -48.2275 -48.2265 -36.0401 -36.0387
   -35.9875 -35.9865 -35.9338 -35.9325 -14.4773 -14.4740 -14.0485 -14.0463
    -5.4847  -5.4808  -4.9909  -4.9866  -4.2822  -4.2788  -3.2587  -3.2531
    -2.6250  -2.6199  -1.8137  -1.8104  -1.7686  -1.7647   0.0429   0.0566
     0.6416   0.6427   1.7385   1.7985   2.7326   2.7344   3.9841

          k = 0.0000 0.3608 0.0000 ( 37749 PWs)   bands (ev):

   -61.8813 -61.8804 -48.2941 -48.2930 -48.2926 -48.2917 -48.2908 -48.2899
   -48.2894 -48.2885 -48.2500 -48.2492 -48.2486 -48.2485 -48.2480 -48.2478
   -48.2472 -48.2467 -48.2285 -48.2272 -48.2271 -48.2260 -36.0921 -36.0907
   -35.9762 -35.9752 -35.9460 -35.9446 -14.1290 -14.1258 -13.8290 -13.8266
    -5.6015  -5.5972  -5.2396  -5.2364  -4.7267  -4.7232  -3.4073  -3.4019
    -2.9837  -2.9811  -2.0783  -2.0761  -1.6634  -1.6594   0.3040   0.3150
     0.6185   0.6197   2.1561   2.2188   2.7691   2.7712   4.5343

          k = 0.0000 0.4330 0.0000 ( 37785 PWs)   bands (ev):

   -61.8771 -61.8762 -48.2941 -48.2930 -48.2927 -48.2916 -48.2901 -48.2891
   -48.2886 -48.2877 -48.2503 -48.2493 -48.2489 -48.2487 -48.2480 -48.2479
   -48.2473 -48.2467 -48.2281 -48.2269 -48.2267 -48.2256 -36.1358 -36.1344
   -35.9666 -35.9656 -35.9563 -35.9549 -13.8651 -13.8617 -13.5501 -13.5476
    -6.2019  -6.1980  -5.5794  -5.5762  -4.5367  -4.5341  -3.5665  -3.5612
    -3.2375  -3.2354  -2.2513  -2.2499  -1.5296  -1.5260   0.6329   0.6347
     0.6711   0.6783   2.6774   2.7310   2.8056   2.8079   4.9679

          k = 0.0000 0.5052 0.0000 ( 37822 PWs)   bands (ev):

   -61.8744 -61.8735 -48.2942 -48.2930 -48.2927 -48.2916 -48.2896 -48.2886
   -48.2881 -48.2872 -48.2506 -48.2494 -48.2492 -48.2488 -48.2481 -48.2480
   -48.2474 -48.2468 -48.2279 -48.2266 -48.2264 -48.2254 -36.1649 -36.1634
   -35.9631 -35.9618 -35.9601 -35.9591 -13.7199 -13.7164 -13.2883 -13.2858
    -6.7594  -6.7556  -5.6006  -5.5981  -4.7038  -4.7014  -3.6785  -3.6733
    -3.1171  -3.1150  -2.3792  -2.3783  -1.4423  -1.4391   0.6820   0.6842
     1.0144   1.0180   2.8281   2.8307   3.1380   3.1694   4.6445

          k = 0.0000-0.5774 0.0000 ( 37832 PWs)   bands (ev):

   -61.8734 -61.8725 -48.2942 -48.2930 -48.2927 -48.2916 -48.2894 -48.2884
   -48.2879 -48.2871 -48.2507 -48.2494 -48.2493 -48.2488 -48.2481 -48.2480
   -48.2475 -48.2468 -48.2278 -48.2265 -48.2263 -48.2253 -36.1751 -36.1736
   -35.9655 -35.9642 -35.9578 -35.9568 -13.6724 -13.6688 -13.1817 -13.1792
    -6.9647  -6.9609  -5.5710  -5.5690  -4.8466  -4.8439  -3.7182  -3.7129
    -2.9882  -2.9863  -2.4475  -2.4469  -1.4146  -1.4115   0.7095   0.7120
     1.1625   1.1638   2.8354   2.8380   3.3690   3.3813   4.3346

          k = 0.0625 0.1083 0.0000 ( 37709 PWs)   bands (ev):

   -61.8960 -61.8951 -48.2941 -48.2936 -48.2931 -48.2927 -48.2926 -48.2922
   -48.2918 -48.2913 -48.2489 -48.2488 -48.2478 -48.2477 -48.2475 -48.2474
   -48.2465 -48.2464 -48.2299 -48.2286 -48.2284 -48.2274 -36.0107 -36.0097
   -35.9325 -35.9312 -35.9093 -35.9080 -15.1282 -15.1248 -14.3910 -14.3894
    -6.2103  -6.2066  -4.1934  -4.1877  -3.2848  -3.2787  -2.7415  -2.7312
    -1.8804  -1.8764  -1.5019  -1.4982  -1.3877  -1.3786   0.0553   0.0658
     0.4299   0.4318   2.2270   2.2710   2.7490   2.7549   3.0601

          k = 0.0625 0.1804 0.0000 ( 37703 PWs)   bands (ev):

   -61.8925 -61.8916 -48.2941 -48.2931 -48.2930 -48.2926 -48.2920 -48.2918
   -48.2915 -48.2906 -48.2492 -48.2489 -48.2480 -48.2478 -48.2478 -48.2475
   -48.2467 -48.2465 -48.2295 -48.2283 -48.2281 -48.2271 -36.0028 -36.0017
   -35.9692 -35.9678 -35.9188 -35.9174 -14.9131 -14.9097 -14.2799 -14.2781
    -5.9224  -5.9186  -4.6067  -4.6015  -3.2792  -3.2733  -2.8147  -2.8101
    -2.4572  -2.4529  -1.7571  -1.7527  -1.4197  -1.4107   0.0533   0.0658
     0.4296   0.4322   1.9077   1.9547   2.5762   2.5812   3.3712

          k = 0.0625 0.2526 0.0000 ( 37702 PWs)   bands (ev):

   -61.8881 -61.8872 -48.2940 -48.2931 -48.2926 -48.2922 -48.2917 -48.2912
   -48.2907 -48.2898 -48.2495 -48.2490 -48.2482 -48.2481 -48.2479 -48.2476
   -48.2469 -48.2466 -48.2291 -48.2279 -48.2277 -48.2267 -36.0169 -36.0155
   -35.9921 -35.9911 -35.9312 -35.9298 -14.6130 -14.6097 -14.1239 -14.1218
    -5.5548  -5.5510  -4.9506  -4.9458  -3.8381  -3.8344  -3.2249  -3.2201
    -2.6032  -2.5989  -1.9667  -1.9633  -1.4487  -1.4435  -0.0098   0.0012
     0.5070   0.5136   1.8009   1.8481   2.5432   2.5551   3.7955

          k = 0.0625 0.3248 0.0000 ( 37734 PWs)   bands (ev):

   -61.8832 -61.8823 -48.2940 -48.2930 -48.2926 -48.2916 -48.2913 -48.2903
   -48.2898 -48.2889 -48.2499 -48.2492 -48.2485 -48.2484 -48.2479 -48.2477
   -48.2471 -48.2467 -48.2287 -48.2274 -48.2273 -48.2262 -36.0678 -36.0664
   -35.9809 -35.9798 -35.9446 -35.9432 -14.2646 -14.2614 -13.9304 -13.9280
    -5.4476  -5.4433  -4.9266  -4.9233  -4.7824  -4.7786  -3.4643  -3.4598
    -2.7281  -2.7252  -2.2813  -2.2789  -1.4369  -1.4337   0.0418   0.0512
     0.6566   0.6615   1.9399   1.9833   2.6303   2.6523   4.3132

          k = 0.0625 0.3969 0.0000 ( 37770 PWs)   bands (ev):

   -61.8787 -61.8778 -48.2940 -48.2929 -48.2925 -48.2916 -48.2905 -48.2895
   -48.2890 -48.2881 -48.2502 -48.2493 -48.2488 -48.2486 -48.2480 -48.2479
   -48.2473 -48.2467 -48.2282 -48.2270 -48.2268 -48.2258 -36.1146 -36.1131
   -35.9704 -35.9694 -35.9568 -35.9555 -13.9484 -13.9452 -13.6862 -13.6836
    -5.8177  -5.8136  -5.4833  -5.4799  -4.5610  -4.5579  -3.7093  -3.7052
    -2.9916  -2.9895  -2.4993  -2.4972  -1.3684  -1.3657   0.2408   0.2465
     0.8143   0.8179   2.2372   2.2631   2.7954   2.8304   4.8636

          k = 0.0625 0.4691 0.0000 ( 37798 PWs)   bands (ev):

   -61.8753 -61.8744 -48.2940 -48.2928 -48.2926 -48.2915 -48.2899 -48.2889
   -48.2884 -48.2875 -48.2505 -48.2494 -48.2491 -48.2487 -48.2481 -48.2480
   -48.2474 -48.2468 -48.2279 -48.2267 -48.2265 -48.2255 -36.1501 -36.1486
   -35.9666 -35.9653 -35.9620 -35.9610 -13.7510 -13.7475 -13.4005 -13.3980
    -6.4727  -6.4689  -5.5897  -5.5867  -4.5553  -4.5529  -3.8032  -3.7987
    -3.1064  -3.1042  -2.6046  -2.6029  -1.3282  -1.3259   0.4845   0.4872
     0.9969   0.9998   2.4736   2.4805   3.0525   3.0876   5.0488

          k = 0.0625 0.5413 0.0000 ( 37791 PWs)   bands (ev):

   -61.8734 -61.8725 -48.2940 -48.2928 -48.2926 -48.2915 -48.2895 -48.2885
   -48.2881 -48.2872 -48.2506 -48.2495 -48.2492 -48.2487 -48.2481 -48.2481
   -48.2474 -48.2468 -48.2278 -48.2265 -48.2263 -48.2253 -36.1692 -36.1678
   -35.9715 -35.9702 -35.9578 -35.9569 -13.6578 -13.6542 -13.2054 -13.2028
    -6.8595  -6.8557  -5.5721  -5.5698  -4.7652  -4.7626  -3.8208  -3.8160
    -2.9931  -2.9911  -2.6769  -2.6755  -1.3292  -1.3271   0.6652   0.6674
     1.1272   1.1288   2.5738   2.5762   3.3063   3.3231   4.6173

          k = 0.1250 0.2165 0.0000 ( 37731 PWs)   bands (ev):

   -61.8887 -61.8879 -48.2940 -48.2930 -48.2925 -48.2924 -48.2917 -48.2914
   -48.2909 -48.2900 -48.2495 -48.2490 -48.2481 -48.2480 -48.2479 -48.2476
   -48.2468 -48.2466 -48.2292 -48.2279 -48.2278 -48.2267 -36.0070 -36.0057
   -35.9940 -35.9929 -35.9317 -35.9304 -14.6595 -14.6562 -14.1497 -14.1477
    -5.5855  -5.5818  -4.9183  -4.9133  -3.6964  -3.6920  -3.0126  -3.0089
    -2.8663  -2.8621  -1.9355  -1.9305  -1.3287  -1.3213   0.0480   0.0532
     0.3041   0.3175   2.1257   2.1793   2.1826   2.1901   3.7362

          k = 0.1250 0.2887 0.0000 ( 37723 PWs)   bands (ev):

   -61.8843 -61.8834 -48.2939 -48.2928 -48.2924 -48.2916 -48.2915 -48.2906
   -48.2902 -48.2893 -48.2498 -48.2491 -48.2484 -48.2483 -48.2480 -48.2477
   -48.2470 -48.2467 -48.2288 -48.2275 -48.2274 -48.2263 -36.0506 -36.0492
   -35.9836 -35.9826 -35.9477 -35.9463 -14.3371 -14.3339 -13.9825 -13.9802
    -5.2716  -5.2674  -5.0825  -5.0785  -4.4643  -4.4605  -3.4642  -3.4610
    -2.9560  -2.9523  -2.2022  -2.1996  -1.2007  -1.1954  -0.1659  -0.1586
     0.5984   0.6090   1.8661   1.8754   2.4382   2.4961   4.2048

          k = 0.1250 0.3608 0.0000 ( 37761 PWs)   bands (ev):

   -61.8798 -61.8789 -48.2938 -48.2927 -48.2923 -48.2913 -48.2909 -48.2899
   -48.2894 -48.2885 -48.2501 -48.2493 -48.2487 -48.2485 -48.2481 -48.2478
   -48.2472 -48.2468 -48.2284 -48.2271 -48.2269 -48.2259 -36.0935 -36.0921
   -35.9738 -35.9727 -35.9634 -35.9621 -13.9969 -13.9938 -13.7816 -13.7790
    -5.4745  -5.4701  -5.2641  -5.2607  -4.6682  -4.6648  -3.8522  -3.8488
    -3.0552  -3.0522  -2.6319  -2.6302  -1.0686  -1.0652  -0.1301  -0.1238
     0.8838   0.8896   1.7843   1.7937   2.7498   2.8050   4.7482

          k = 0.1250 0.4330 0.0000 ( 37768 PWs)   bands (ev):

   -61.8760 -61.8751 -48.2937 -48.2925 -48.2922 -48.2912 -48.2903 -48.2893
   -48.2888 -48.2879 -48.2503 -48.2494 -48.2489 -48.2486 -48.2482 -48.2480
   -48.2473 -48.2469 -48.2280 -48.2268 -48.2266 -48.2255 -36.1295 -36.1281
   -35.9788 -35.9774 -35.9635 -35.9625 -13.7470 -13.7437 -13.5185 -13.5158
    -6.0641  -6.0603  -5.5232  -5.5196  -4.3973  -4.3946  -4.0794  -4.0757
    -3.1668  -3.1642  -2.9804  -2.9785  -1.0357  -1.0338   0.1147   0.1189
     1.0761   1.0787   1.8957   1.9028   3.0388   3.0794   5.2340

          k = 0.1250 0.5052 0.0000 ( 37794 PWs)   bands (ev):

   -61.8734 -61.8725 -48.2936 -48.2924 -48.2922 -48.2911 -48.2899 -48.2889
   -48.2884 -48.2875 -48.2505 -48.2496 -48.2491 -48.2487 -48.2482 -48.2482
   -48.2474 -48.2469 -48.2278 -48.2265 -48.2263 -48.2253 -36.1534 -36.1519
   -35.9878 -35.9865 -35.9579 -35.9569 -13.6151 -13.6116 -13.2695 -13.2668
    -6.5673  -6.5636  -5.5564  -5.5535  -4.5699  -4.5673  -4.0311  -4.0272
    -3.2481  -3.2458  -3.0443  -3.0423  -1.0926  -1.0914   0.4537   0.4562
     1.1261   1.1275   2.0644   2.0683   3.2385   3.2585   5.1943

          k = 0.1250 0.5774 0.0000 ( 37780 PWs)   bands (ev):

   -61.8725 -61.8716 -48.2936 -48.2924 -48.2922 -48.2911 -48.2897 -48.2887
   -48.2882 -48.2874 -48.2506 -48.2496 -48.2492 -48.2487 -48.2482 -48.2482
   -48.2474 -48.2469 -48.2277 -48.2264 -48.2263 -48.2252 -36.1618 -36.1603
   -35.9911 -35.9897 -35.9558 -35.9548 -13.5714 -13.5679 -13.1702 -13.1675
    -6.7509  -6.7471  -5.5483  -5.5458  -4.6845  -4.6818  -4.0275  -4.0235
    -3.2773  -3.2751  -2.9989  -2.9969  -1.1316  -1.1305   0.6560   0.6578
     1.0776   1.0788   2.1487   2.1506   3.3092   3.3188   4.9995

          k = 0.1875 0.3248 0.0000 ( 37725 PWs)   bands (ev):

   -61.8801 -61.8792 -48.2936 -48.2925 -48.2922 -48.2912 -48.2911 -48.2901
   -48.2896 -48.2887 -48.2501 -48.2492 -48.2486 -48.2485 -48.2481 -48.2478
   -48.2471 -48.2468 -48.2284 -48.2272 -48.2270 -48.2259 -36.0839 -36.0825
   -35.9759 -35.9748 -35.9670 -35.9658 -14.0123 -14.0092 -13.8163 -13.8136
    -5.3422  -5.3376  -5.0955  -5.0918  -4.7572  -4.7539  -3.8552  -3.8525
    -3.3361  -3.3321  -2.5125  -2.5111  -0.9010  -0.8964  -0.3097  -0.3036
     0.8810   0.8887   1.6007   1.6043   2.7351   2.7963   4.7043

          k = 0.1875 0.3969 0.0000 ( 37753 PWs)   bands (ev):

   -61.8763 -61.8754 -48.2934 -48.2922 -48.2919 -48.2909 -48.2906 -48.2896
   -48.2892 -48.2883 -48.2503 -48.2494 -48.2489 -48.2486 -48.2482 -48.2480
   -48.2473 -48.2469 -48.2280 -48.2268 -48.2266 -48.2256 -36.1127 -36.1113
   -35.9911 -35.9897 -35.9644 -35.9634 -13.7093 -13.7062 -13.6188 -13.6160
    -5.6952  -5.6914  -5.4459  -5.4418  -4.3565  -4.3534  -4.2071  -4.2043
    -3.6618  -3.6583  -2.9112  -2.9099  -0.6937  -0.6909  -0.2408  -0.2364
     1.1047   1.1084   1.5191   1.5243   3.0389   3.0829   5.2423

          k = 0.1875 0.4691 0.0000 ( 37759 PWs)   bands (ev):

   -61.8734 -61.8725 -48.2931 -48.2920 -48.2917 -48.2906 -48.2903 -48.2893
   -48.2888 -48.2880 -48.2504 -48.2496 -48.2490 -48.2487 -48.2482 -48.2482
   -48.2474 -48.2469 -48.2278 -48.2265 -48.2263 -48.2253 -36.1336 -36.1322
   -36.0081 -36.0068 -35.9579 -35.9569 -13.5489 -13.5456 -13.3566 -13.3538
    -6.1795  -6.1758  -5.5131  -5.5096  -4.4290  -4.4260  -4.1203  -4.1174
    -3.8872  -3.8844  -3.1812  -3.1795  -0.7446  -0.7432   0.1021   0.1047
     1.1462   1.1478   1.6700   1.6756   3.2176   3.2381   5.5639

          k = 0.1875 0.5413 0.0000 ( 37793 PWs)   bands (ev):

   -61.8718 -61.8709 -48.2930 -48.2918 -48.2916 -48.2905 -48.2901 -48.2891
   -48.2886 -48.2878 -48.2505 -48.2497 -48.2490 -48.2488 -48.2483 -48.2483
   -48.2475 -48.2470 -48.2276 -48.2264 -48.2262 -48.2252 -36.1445 -36.1431
   -36.0178 -36.0164 -35.9543 -35.9533 -13.4713 -13.4679 -13.1871 -13.1843
    -6.4568  -6.4531  -5.5416  -5.5384  -4.5225  -4.5195  -4.1631  -4.1600
    -3.9619  -3.9596  -3.2023  -3.2004  -0.8322  -0.8315   0.4698   0.4710
     0.9989   1.0003   1.8822   1.8854   3.2211   3.2287   5.5723

          k = 0.2500 0.4330 0.0000 ( 37711 PWs)   bands (ev):

   -61.8734 -61.8725 -48.2929 -48.2917 -48.2914 -48.2905 -48.2904 -48.2895
   -48.2890 -48.2882 -48.2504 -48.2496 -48.2489 -48.2488 -48.2482 -48.2482
   -48.2475 -48.2469 -48.2278 -48.2265 -48.2263 -48.2253 -36.1232 -36.1217
   -36.0187 -36.0174 -35.9579 -35.9569 -13.4871 -13.4838 -13.4269 -13.4240
    -5.9589  -5.9553  -5.4817  -5.4777  -4.4105  -4.4080  -4.2506  -4.2473
    -4.0460  -4.0430  -3.2769  -3.2756  -0.3346  -0.3318  -0.3127  -0.3112
     1.1413   1.1433   1.5448   1.5507   3.2162   3.2365   5.6887

          k = 0.2500 0.5052 0.0000 ( 37776 PWs)   bands (ev):

   -61.8715 -61.8706 -48.2925 -48.2914 -48.2911 -48.2905 -48.2900 -48.2895
   -48.2891 -48.2882 -48.2503 -48.2498 -48.2489 -48.2489 -48.2484 -48.2482
   -48.2476 -48.2469 -48.2276 -48.2264 -48.2262 -48.2252 -36.1257 -36.1243
   -36.0418 -36.0404 -35.9535 -35.9525 -13.3774 -13.3741 -13.2399 -13.2369
    -6.1067  -6.1031  -5.5334  -5.5296  -4.6700  -4.6665  -4.3877  -4.3854
    -3.9720  -3.9697  -3.5147  -3.5131  -0.4361  -0.4351   0.0599   0.0608
     0.9621   0.9635   1.8364   1.8424   3.1530   3.1577   5.7924

          k = 0.2500 0.5774 0.0000 ( 37791 PWs)   bands (ev):

   -61.8708 -61.8699 -48.2923 -48.2912 -48.2909 -48.2905 -48.2898 -48.2896
   -48.2891 -48.2882 -48.2503 -48.2499 -48.2490 -48.2489 -48.2485 -48.2482
   -48.2477 -48.2469 -48.2275 -48.2263 -48.2261 -48.2251 -36.1252 -36.1237
   -36.0513 -36.0499 -35.9519 -35.9509 -13.3388 -13.3354 -13.1700 -13.1671
    -6.1496  -6.1460  -5.5635  -5.5598  -4.8230  -4.8195  -4.2080  -4.2058
    -4.1882  -4.1863  -3.5155  -3.5137  -0.4868  -0.4861   0.3187   0.3189
     0.7549   0.7568   2.0571   2.0599   3.0169   3.0197   5.6761

          k = 0.3125 0.5413 0.0000 ( 37789 PWs)   bands (ev):

   -61.8704 -61.8695 -48.2919 -48.2910 -48.2906 -48.2904 -48.2899 -48.2896
   -48.2892 -48.2886 -48.2502 -48.2499 -48.2491 -48.2488 -48.2485 -48.2482
   -48.2478 -48.2469 -48.2275 -48.2263 -48.2261 -48.2251 -36.1077 -36.1062
   -36.0738 -36.0724 -35.9511 -35.9501 -13.2593 -13.2560 -13.1974 -13.1944
    -5.8453  -5.8418  -5.5733  -5.5693  -5.2626  -5.2592  -4.2210  -4.2191
    -3.8830  -3.8807  -3.8804  -3.8792  -0.1494  -0.1483   0.0281   0.0286
     0.6552   0.6574   2.2640   2.2690   2.8299   2.8326   5.6087

     the Fermi energy is    -0.2985 ev

!    total energy              =   -2326.92255220 Ry
     total all-electron energy =    -35628.670381 Ry
     estimated scf accuracy    <          7.9E-09 Ry
     smearing contrib. (-TS)   =       0.00089834 Ry
     internal energy E=F+TS    =   -2326.92345054 Ry

     The total energy is F=E-TS. E is the sum of the following terms:
     one-electron contribution =  -21522.14007949 Ry
     hartree contribution      =   10749.29528746 Ry
     xc contribution           =    -152.42395605 Ry
     ewald contribution        =    9608.85974110 Ry
     one-center paw contrib.   =   -1010.51444357 Ry

     convergence has been achieved in  23 iterations

     Writing all to output data dir ./tmp/cleave_020/mose2_cleave_020.save/ :
     XML data file, charge density, pseudopotentials, collected wavefunctions

     init_run     :     11.64s CPU     11.86s WALL (       1 calls)
     electrons    :    443.53s CPU    451.53s WALL (       1 calls)

     Called by init_run:
     wfcinit      :      5.29s CPU      5.33s WALL (       1 calls)
     potinit      :      5.71s CPU      5.76s WALL (       1 calls)
     hinit0       :      0.06s CPU      0.06s WALL (       1 calls)

     Called by electrons:
     c_bands      :    369.24s CPU    371.19s WALL (      24 calls)
     sum_band     :     49.11s CPU     51.83s WALL (      24 calls)
     v_of_rho     :     14.91s CPU     15.80s WALL (      24 calls)
     newd         :      8.72s CPU     11.22s WALL (      24 calls)
     PAW_pot      :      1.52s CPU      1.55s WALL (      24 calls)
     mix_rho      :      5.88s CPU      5.91s WALL (      24 calls)
     vdW_kernel   :      5.27s CPU      5.27s WALL (       1 calls)

     Called by c_bands:
     init_us_2    :      3.45s CPU      3.47s WALL (    1470 calls)
     cegterg      :    362.26s CPU    364.14s WALL (     720 calls)

     Called by *egterg:
     cdiaghg      :     10.67s CPU     10.69s WALL (    2866 calls)
     h_psi        :    162.29s CPU    163.04s WALL (    2926 calls)
     s_psi        :     36.46s CPU     36.50s WALL (    2926 calls)
     g_psi        :      0.67s CPU      0.67s WALL (    2176 calls)

     Called by h_psi:
     h_psi:calbec :     46.78s CPU     47.05s WALL (    2926 calls)
     vloc_psi     :     69.20s CPU     69.62s WALL (    2926 calls)
                                        0.00s GPU  (    2926 calls)
     add_vuspsi   :     45.66s CPU     45.71s WALL (    2926 calls)

     General routines
     calbec       :     67.36s CPU     67.75s WALL (    3646 calls)
     fft          :      5.34s CPU      5.41s WALL (    1511 calls)
     ffts         :      2.08s CPU      2.08s WALL (    2754 calls)
     fftw         :     74.59s CPU     75.06s WALL (  214934 calls)
     interpolate  :      0.11s CPU      0.11s WALL (      24 calls)

     Parallel routines

     PWSCF        :   7m35.91s CPU   7m44.36s WALL


   This run was terminated on:  11:28:48  20Jun2026            

=------------------------------------------------------------------------------=
   JOB DONE.
=------------------------------------------------------------------------------=
Note: The following floating-point exceptions are signalling: IEEE_UNDERFLOW_FLAG IEEE_DENORMAL
Note: The following floating-point exceptions are signalling: IEEE_UNDERFLOW_FLAG IEEE_DENORMAL
Note: The following floating-point exceptions are signalling: IEEE_UNDERFLOW_FLAG IEEE_DENORMAL
Note: The following floating-point exceptions are signalling: IEEE_UNDERFLOW_FLAG IEEE_DENORMAL
Note: The following floating-point exceptions are signalling: IEEE_UNDERFLOW_FLAG IEEE_DENORMAL
Note: The following floating-point exceptions are signalling: IEEE_UNDERFLOW_FLAG IEEE_DENORMAL
Note: The following floating-point exceptions are signalling: IEEE_UNDERFLOW_FLAG IEEE_DENORMAL
Note: The following floating-point exceptions are signalling: IEEE_UNDERFLOW_FLAG IEEE_DENORMAL
Note: The following floating-point exceptions are signalling: IEEE_UNDERFLOW_FLAG IEEE_DENORMAL
Note: The following floating-point exceptions are signalling: IEEE_UNDERFLOW_FLAG IEEE_DENORMAL
Note: The following floating-point exceptions are signalling: IEEE_UNDERFLOW_FLAG IEEE_DENORMAL
Note: The following floating-point exceptions are signalling: IEEE_UNDERFLOW_FLAG IEEE_DENORMAL
Note: The following floating-point exceptions are signalling: IEEE_UNDERFLOW_FLAG IEEE_DENORMAL
Note: The following floating-point exceptions are signalling: IEEE_UNDERFLOW_FLAG IEEE_DENORMAL
Note: The following floating-point exceptions are signalling: IEEE_UNDERFLOW_FLAG IEEE_DENORMAL
Note: The following floating-point exceptions are signalling: IEEE_UNDERFLOW_FLAG IEEE_DENORMAL
Note: The following floating-point exceptions are signalling: IEEE_UNDERFLOW_FLAG IEEE_DENORMAL
Note: The following floating-point exceptions are signalling: IEEE_UNDERFLOW_FLAG IEEE_DENORMAL
Note: The following floating-point exceptions are signalling: IEEE_UNDERFLOW_FLAG IEEE_DENORMAL
Note: The following floating-point exceptions are signalling: IEEE_UNDERFLOW_FLAG IEEE_DENORMAL
Note: The following floating-point exceptions are signalling: IEEE_UNDERFLOW_FLAG IEEE_DENORMAL
Note: The following floating-point exceptions are signalling: IEEE_UNDERFLOW_FLAG IEEE_DENORMAL
Note: The following floating-point exceptions are signalling: IEEE_UNDERFLOW_FLAG IEEE_DENORMAL
Note: The following floating-point exceptions are signalling: IEEE_UNDERFLOW_FLAG IEEE_DENORMAL
