
     Program PWSCF v.7.5 starts on 20Jun2026 at 12:56:26 

     This program is part of the open-source Quantum ESPRESSO suite
     for quantum simulation of materials; please cite
         "P. Giannozzi et al., J. Phys.:Condens. Matter 21 395502 (2009);
         "P. Giannozzi et al., J. Phys.:Condens. Matter 29 465901 (2017);
         "P. Giannozzi et al., J. Chem. Phys. 152 154105 (2020);
          URL http://www.quantum-espresso.org", 
     in publications or presentations arising from this work. More details at
     http://www.quantum-espresso.org/quote

     Parallel version (MPI), running on    24 processors

     MPI processes distributed on     1 nodes
     20713 MiB available memory on the printing compute node when the environment starts

     Waiting for input...
     Reading input from standard input

     Current dimensions of program PWSCF are:
     Max number of different atomic species (ntypx) = 10
     Max number of k-points (npk) =  40000
     Max angular momentum in pseudopotentials (lmaxx) =  4
     file Mo.pbe-spn-kjpaw_psl.1.0.0.UPF: wavefunction(s)  4S 4D renormalized
     file Se.pbe-dn-kjpaw_psl.1.0.0.UPF: wavefunction(s)  4S 4P 3D renormalized

     IMPORTANT: XC functional enforced from input :
     Exchange-correlation= VDW-DF2-B86R
                           (   1   4  26   0   2   0   0)
     Any further DFT definition will be discarded
     Please, verify this is what you really want


     R & G space division:  proc/nbgrp/npool/nimage =      24
     Subspace diagonalization in iterative solution of the eigenvalue problem:
     a serial algorithm will be used


     Parallelization info
     --------------------
     sticks:   dense  smooth     PW     G-vecs:    dense   smooth      PW
     Min          69      35     10                35537    12585    1924
     Max          70      36     11                35620    12648    1981
     Sum        1675     847    241               853823   302525   46513

     Using Slab Decomposition



     bravais-lattice index     =            4
     lattice parameter (alat)  =       6.1794  a.u.
     unit-cell volume          =    3124.5879 (a.u.)^3
     number of atoms/cell      =            6
     number of atomic types    =            2
     number of electrons       =        92.00
     number of Kohn-Sham states=           55
     kinetic-energy cutoff     =      80.0000  Ry
     charge density cutoff     =     640.0000  Ry
     scf convergence threshold =      1.0E-08
     mixing beta               =       0.3000
     number of iterations used =            8  local-TF  mixing
     Exchange-correlation= VDW-DF2-B86R
                           (   1   4  26   0   2   0   0)

     celldm(1)=   6.179404  celldm(2)=   0.000000  celldm(3)=  15.290520
     celldm(4)=   0.000000  celldm(5)=   0.000000  celldm(6)=   0.000000

     crystal axes: (cart. coord. in units of alat)
               a(1) = (   1.000000   0.000000   0.000000 )  
               a(2) = (  -0.500000   0.866025   0.000000 )  
               a(3) = (   0.000000   0.000000  15.290520 )  

     reciprocal axes: (cart. coord. in units 2 pi/alat)
               b(1) = (  1.000000  0.577350 -0.000000 )  
               b(2) = (  0.000000  1.154701  0.000000 )  
               b(3) = (  0.000000 -0.000000  0.065400 )  


     PseudoPot. # 1 for Mo read from file:
     ./pseudo/Mo.pbe-spn-kjpaw_psl.1.0.0.UPF
     MD5 check sum: 4396e0c640fcce5c25f020efccf1ab12
     Pseudo is Projector augmented-wave + core cor, Zval = 14.0
     Generated using &quot;atomic&quot; code by A. Dal Corso  v.6.3
     Shape of augmentation charge: PSQ
     Using radial grid of 1229 points,  6 beta functions with: 
                l(1) =   0
                l(2) =   0
                l(3) =   1
                l(4) =   1
                l(5) =   2
                l(6) =   2
     Q(r) pseudized with 0 coefficients 


     PseudoPot. # 2 for Se read from file:
     ./pseudo/Se.pbe-dn-kjpaw_psl.1.0.0.UPF
     MD5 check sum: ac240dd2bae32a30e0bf3a38df9c8785
     Pseudo is Projector augmented-wave + core cor, Zval = 16.0
     Generated using &quot;atomic&quot; code by A. Dal Corso  v.6.3
     Shape of augmentation charge: PSQ
     Using radial grid of 1211 points,  6 beta functions with: 
                l(1) =   0
                l(2) =   0
                l(3) =   1
                l(4) =   1
                l(5) =   2
                l(6) =   2
     Q(r) pseudized with 0 coefficients 


     atomic species   valence    mass     pseudopotential
     Mo               14.00    95.96000     Mo( 1.00)
     Se               16.00    78.96000     Se( 1.00)

      6 Sym. Ops. (no inversion) found



   Cartesian axes

     site n.     atom                  positions (alat units)
         1        Se     tau(   1) = (  -0.0000005   0.5773506   6.1238532  )
         2        Mo     tau(   2) = (   0.0000000   0.0000000   6.6502752  )
         3        Se     tau(   3) = (   0.5000005   0.2886748   7.1775994  )
         4        Se     tau(   4) = (  -0.0000005   0.5773506  10.0695260  )
         5        Mo     tau(   5) = (   0.5000005   0.2886748  10.5967125  )
         6        Se     tau(   6) = (   0.0000000   0.0000000  11.1238532  )

     number of k points=    30  Methfessel-Paxton smearing, width (Ry)=  0.0200
                       cart. coord. in units 2pi/alat
        k(    1) = (   0.0000000   0.0000000   0.0000000), wk =   0.0078125
        k(    2) = (   0.0000000   0.0721688   0.0000000), wk =   0.0468750
        k(    3) = (   0.0000000   0.1443376   0.0000000), wk =   0.0468750
        k(    4) = (   0.0000000   0.2165064   0.0000000), wk =   0.0468750
        k(    5) = (   0.0000000   0.2886751   0.0000000), wk =   0.0468750
        k(    6) = (   0.0000000   0.3608439   0.0000000), wk =   0.0468750
        k(    7) = (   0.0000000   0.4330127   0.0000000), wk =   0.0468750
        k(    8) = (   0.0000000   0.5051815   0.0000000), wk =   0.0468750
        k(    9) = (   0.0000000  -0.5773503   0.0000000), wk =   0.0234375
        k(   10) = (   0.0625000   0.1082532   0.0000000), wk =   0.0468750
        k(   11) = (   0.0625000   0.1804220   0.0000000), wk =   0.0937500
        k(   12) = (   0.0625000   0.2525907   0.0000000), wk =   0.0937500
        k(   13) = (   0.0625000   0.3247595   0.0000000), wk =   0.0937500
        k(   14) = (   0.0625000   0.3969283   0.0000000), wk =   0.0937500
        k(   15) = (   0.0625000   0.4690971   0.0000000), wk =   0.0937500
        k(   16) = (   0.0625000   0.5412659   0.0000000), wk =   0.0937500
        k(   17) = (   0.1250000   0.2165064   0.0000000), wk =   0.0468750
        k(   18) = (   0.1250000   0.2886751   0.0000000), wk =   0.0937500
        k(   19) = (   0.1250000   0.3608439   0.0000000), wk =   0.0937500
        k(   20) = (   0.1250000   0.4330127   0.0000000), wk =   0.0937500
        k(   21) = (   0.1250000   0.5051815   0.0000000), wk =   0.0937500
        k(   22) = (   0.1250000   0.5773503   0.0000000), wk =   0.0468750
        k(   23) = (   0.1875000   0.3247595   0.0000000), wk =   0.0468750
        k(   24) = (   0.1875000   0.3969283   0.0000000), wk =   0.0937500
        k(   25) = (   0.1875000   0.4690971   0.0000000), wk =   0.0937500
        k(   26) = (   0.1875000   0.5412659   0.0000000), wk =   0.0937500
        k(   27) = (   0.2500000   0.4330127   0.0000000), wk =   0.0468750
        k(   28) = (   0.2500000   0.5051815   0.0000000), wk =   0.0937500
        k(   29) = (   0.2500000   0.5773503   0.0000000), wk =   0.0468750
        k(   30) = (   0.3125000   0.5412659   0.0000000), wk =   0.0468750

     Dense  grid:   853823 G-vectors     FFT dimensions: (  50,  50, 768)

     Smooth grid:   302525 G-vectors     FFT dimensions: (  36,  36, 540)

     Estimated max dynamical RAM per process >     171.88 MB

     Estimated total dynamical RAM >       4.03 GB

     Initial potential from superposition of free atoms

     starting charge      91.9979, renormalised to      92.0000

     negative rho (up, down):  1.670E-04 0.000E+00


     %%%%%%%%%%%%%%%%%%%%%%%%%%%%%%%%%%%%%%%%%%%%%%%%%%%%%%%%%%%%%%%%%%%%%%%%
     %                                                                      %
     % You are using vdW-DF, which was implemented by the Thonhauser group. %
     % Please cite the following two papers that made this development      %
     % possible and the two reviews that describe the various versions:     %
     %                                                                      %
     %   T. Thonhauser et al., PRL 115, 136402 (2015).                      %
     %   T. Thonhauser et al., PRB 76, 125112 (2007).                       %
     %   K. Berland et al., Rep. Prog. Phys. 78, 066501 (2015).             %
     %   D.C. Langreth et al., J. Phys.: Condens. Matter 21, 084203 (2009). %
     %                                                                      %
     % If you are calculating stress with vdW-DF, please also cite:         %
     %                                                                      %
     %   R. Sabatini et al., J. Phys.: Condens. Matter 24, 424209 (2012).   %
     %                                                                      %
     %%%%%%%%%%%%%%%%%%%%%%%%%%%%%%%%%%%%%%%%%%%%%%%%%%%%%%%%%%%%%%%%%%%%%%%%

     %%%%%%%%%%%%%%%%%%%%%%%%%%%%%%%%%%%%%%%%%%%%%%%%%%%%%%%%%%%%%%%%%%%%%%%%
     %                                                                      %
     %  vdW-DF NEWS:                                                        %
     %                                                                      %
     %  * vdW-DF3 is now available. DOI: 10.1021/acs.jctc.0c00471           %
     %    use with input_dft = 'vdW-DF3-opt1' or 'vdW-DF3-opt2'             %
     %                                                                      %
     %  * Unscreened and range-separated hybrid vdW-DF-cx functionals       %
     %    DOI: 10.1063/1.4986522 and 10.1088/1361-648X/ac2ad2               %
     %    use with input_dft = 'vdW-DF-cx0'    and 'vdW-DF-ahcx'            %
     %  * Unscreened and range-separated hybrid vdW-DF2-b86r functionals    %
     %    DOI: 10.1063/1.4986522 and DOI: 10.1103/PhysRevX.12.041003        %
     %    use with input_dft = 'vdW-DF2-br0' and 'vdW-DF2-ahbr'             %
     %                                                                      %
     %%%%%%%%%%%%%%%%%%%%%%%%%%%%%%%%%%%%%%%%%%%%%%%%%%%%%%%%%%%%%%%%%%%%%%%%


     Starting wfcs are   56 randomized atomic wfcs
     Checking if some PAW data can be deallocated... 

     total cpu time spent up to now is       12.4 secs

     per-process dynamical memory:    79.7 Mb

     Self-consistent Calculation

     iteration #  1     ecut=    80.00 Ry     beta= 0.30
     Davidson diagonalization with overlap
     ethr =  1.00E-02,  avg # of iterations =  4.4

     Threshold (ethr) on eigenvalues was too large:
     Diagonalizing with lowered threshold

     Davidson diagonalization with overlap
     ethr =  4.50E-04,  avg # of iterations =  2.1

     negative rho (up, down):  5.479E-05 0.000E+00

     total cpu time spent up to now is       49.8 secs

     total energy              =   -2326.96295689 Ry
     estimated scf accuracy    <       0.46102510 Ry

     iteration #  2     ecut=    80.00 Ry     beta= 0.30
     Davidson diagonalization with overlap
     ethr =  5.01E-04,  avg # of iterations =  1.1

     negative rho (up, down):  2.829E-05 0.000E+00

     total cpu time spent up to now is       65.3 secs

     total energy              =   -2326.91591009 Ry
     estimated scf accuracy    <       0.24544652 Ry

     iteration #  3     ecut=    80.00 Ry     beta= 0.30
     Davidson diagonalization with overlap
     ethr =  2.67E-04,  avg # of iterations =  5.5

     negative rho (up, down):  7.873E-06 0.000E+00

     total cpu time spent up to now is       85.0 secs

     total energy              =   -2326.92288222 Ry
     estimated scf accuracy    <       0.03225178 Ry

     iteration #  4     ecut=    80.00 Ry     beta= 0.30
     Davidson diagonalization with overlap
     ethr =  3.51E-05,  avg # of iterations =  6.9

     negative rho (up, down):  3.060E-06 0.000E+00

     total cpu time spent up to now is      106.4 secs

     total energy              =   -2326.92303077 Ry
     estimated scf accuracy    <       0.01060517 Ry

     iteration #  5     ecut=    80.00 Ry     beta= 0.30
     Davidson diagonalization with overlap
     c_bands:  1 eigenvalues not converged
     ethr =  1.15E-05,  avg # of iterations =  4.3

     negative rho (up, down):  6.275E-07 0.000E+00

     total cpu time spent up to now is      126.6 secs

     total energy              =   -2326.92201573 Ry
     estimated scf accuracy    <       0.00452668 Ry

     iteration #  6     ecut=    80.00 Ry     beta= 0.30
     Davidson diagonalization with overlap
     c_bands:  1 eigenvalues not converged
     c_bands:  1 eigenvalues not converged
     ethr =  4.92E-06,  avg # of iterations =  6.9

     negative rho (up, down):  1.914E-07 0.000E+00

     total cpu time spent up to now is      148.6 secs

     total energy              =   -2326.92202709 Ry
     estimated scf accuracy    <       0.00159436 Ry

     iteration #  7     ecut=    80.00 Ry     beta= 0.30
     Davidson diagonalization with overlap
     c_bands:  1 eigenvalues not converged
     ethr =  1.73E-06,  avg # of iterations =  5.1

     negative rho (up, down):  3.056E-07 0.000E+00

     total cpu time spent up to now is      167.5 secs

     total energy              =   -2326.92181341 Ry
     estimated scf accuracy    <       0.00135730 Ry

     iteration #  8     ecut=    80.00 Ry     beta= 0.30
     Davidson diagonalization with overlap
     ethr =  1.48E-06,  avg # of iterations =  6.9

     negative rho (up, down):  1.619E-07 0.000E+00

     total cpu time spent up to now is      187.0 secs

     total energy              =   -2326.92182531 Ry
     estimated scf accuracy    <       0.00076171 Ry

     iteration #  9     ecut=    80.00 Ry     beta= 0.30
     Davidson diagonalization with overlap
     ethr =  8.28E-07,  avg # of iterations =  2.5

     negative rho (up, down):  2.220E-03 0.000E+00

     total cpu time spent up to now is      204.4 secs

     total energy              =   -2326.92188574 Ry
     estimated scf accuracy    <       0.00058362 Ry

     iteration # 10     ecut=    80.00 Ry     beta= 0.30
     Davidson diagonalization with overlap
     ethr =  6.34E-07,  avg # of iterations =  6.9

     negative rho (up, down):  3.505E-03 0.000E+00

     total cpu time spent up to now is      223.4 secs

     total energy              =   -2326.92185762 Ry
     estimated scf accuracy    <       0.00048259 Ry

     iteration # 11     ecut=    80.00 Ry     beta= 0.30
     Davidson diagonalization with overlap
     ethr =  5.25E-07,  avg # of iterations =  1.7

     negative rho (up, down):  3.733E-03 0.000E+00

     total cpu time spent up to now is      241.1 secs

     total energy              =   -2326.92178046 Ry
     estimated scf accuracy    <       0.00039886 Ry

     iteration # 12     ecut=    80.00 Ry     beta= 0.30
     Davidson diagonalization with overlap
     ethr =  4.34E-07,  avg # of iterations =  3.5

     negative rho (up, down):  4.697E-03 0.000E+00

     total cpu time spent up to now is      258.9 secs

     total energy              =   -2326.92174810 Ry
     estimated scf accuracy    <       0.00029611 Ry

     iteration # 13     ecut=    80.00 Ry     beta= 0.30
     Davidson diagonalization with overlap
     ethr =  3.22E-07,  avg # of iterations =  6.3

     negative rho (up, down):  5.026E-03 0.000E+00

     total cpu time spent up to now is      277.2 secs

     total energy              =   -2326.92158411 Ry
     estimated scf accuracy    <       0.00019008 Ry

     iteration # 14     ecut=    80.00 Ry     beta= 0.30
     Davidson diagonalization with overlap
     c_bands:  1 eigenvalues not converged
     ethr =  2.07E-07,  avg # of iterations =  8.4

     negative rho (up, down):  4.164E-03 0.000E+00

     total cpu time spent up to now is      297.5 secs

     total energy              =   -2326.92164237 Ry
     estimated scf accuracy    <       0.00004598 Ry

     iteration # 15     ecut=    80.00 Ry     beta= 0.30
     Davidson diagonalization with overlap
     ethr =  5.00E-08,  avg # of iterations =  2.1

     negative rho (up, down):  1.719E-03 0.000E+00

     total cpu time spent up to now is      314.8 secs

     total energy              =   -2326.92173842 Ry
     estimated scf accuracy    <       0.00003017 Ry

     iteration # 16     ecut=    80.00 Ry     beta= 0.30
     Davidson diagonalization with overlap
     ethr =  3.28E-08,  avg # of iterations =  5.8

     negative rho (up, down):  1.214E-03 0.000E+00

     total cpu time spent up to now is      336.9 secs

     total energy              =   -2326.92175295 Ry
     estimated scf accuracy    <       0.00000974 Ry

     iteration # 17     ecut=    80.00 Ry     beta= 0.30
     Davidson diagonalization with overlap
     ethr =  1.06E-08,  avg # of iterations =  1.6

     negative rho (up, down):  8.023E-04 0.000E+00

     total cpu time spent up to now is      354.2 secs

     total energy              =   -2326.92176305 Ry
     estimated scf accuracy    <       0.00000699 Ry

     iteration # 18     ecut=    80.00 Ry     beta= 0.30
     Davidson diagonalization with overlap
     ethr =  7.60E-09,  avg # of iterations =  7.7

     negative rho (up, down):  6.108E-04 0.000E+00

     total cpu time spent up to now is      376.0 secs

     total energy              =   -2326.92176351 Ry
     estimated scf accuracy    <       0.00000208 Ry

     iteration # 19     ecut=    80.00 Ry     beta= 0.30
     Davidson diagonalization with overlap
     ethr =  2.26E-09,  avg # of iterations =  1.4

     negative rho (up, down):  3.067E-04 0.000E+00

     total cpu time spent up to now is      392.7 secs

     total energy              =   -2326.92177003 Ry
     estimated scf accuracy    <       0.00000149 Ry

     iteration # 20     ecut=    80.00 Ry     beta= 0.30
     Davidson diagonalization with overlap
     ethr =  1.61E-09,  avg # of iterations =  5.5

     negative rho (up, down):  2.604E-04 0.000E+00

     total cpu time spent up to now is      412.9 secs

     total energy              =   -2326.92177065 Ry
     estimated scf accuracy    <       0.00000006 Ry

     iteration # 21     ecut=    80.00 Ry     beta= 0.30
     Davidson diagonalization with overlap
     ethr =  6.52E-11,  avg # of iterations =  2.2

     negative rho (up, down):  2.041E-04 0.000E+00

     total cpu time spent up to now is      431.6 secs

     total energy              =   -2326.92177087 Ry
     estimated scf accuracy    <       0.00000004 Ry

     iteration # 22     ecut=    80.00 Ry     beta= 0.30
     Davidson diagonalization with overlap
     ethr =  3.94E-11,  avg # of iterations =  2.2

     negative rho (up, down):  2.060E-04 0.000E+00

     total cpu time spent up to now is      451.4 secs

     total energy              =   -2326.92177060 Ry
     estimated scf accuracy    <       0.00000002 Ry

     iteration # 23     ecut=    80.00 Ry     beta= 0.30
     Davidson diagonalization with overlap
     ethr =  1.75E-11,  avg # of iterations =  2.8

     negative rho (up, down):  1.968E-04 0.000E+00

     total cpu time spent up to now is      471.7 secs

     End of self-consistent calculation

          k = 0.0000 0.0000 0.0000 ( 37787 PWs)   bands (ev):

   -61.8958 -61.8949 -48.2906 -48.2906 -48.2903 -48.2903 -48.2889 -48.2889
   -48.2887 -48.2887 -48.2450 -48.2450 -48.2448 -48.2448 -48.2433 -48.2433
   -48.2433 -48.2433 -48.2264 -48.2260 -48.2248 -48.2245 -36.0143 -36.0132
   -35.8989 -35.8989 -35.8976 -35.8976 -15.2938 -15.2903 -14.4756 -14.4741
    -6.4369  -6.4338  -3.3603  -3.3603  -3.3542  -3.3541  -3.3360  -3.3355
    -1.5898  -1.5883  -1.0639  -1.0639  -1.0610  -1.0610   0.2293   0.2293
     0.2321   0.2321   2.9478   2.9478   2.9499   2.9499   3.1201

          k = 0.0000 0.0722 0.0000 ( 37755 PWs)   bands (ev):

   -61.8949 -61.8940 -48.2906 -48.2904 -48.2903 -48.2901 -48.2889 -48.2887
   -48.2887 -48.2885 -48.2451 -48.2450 -48.2448 -48.2448 -48.2434 -48.2434
   -48.2433 -48.2433 -48.2263 -48.2259 -48.2247 -48.2244 -36.0120 -36.0110
   -35.9095 -35.9082 -35.9014 -35.9000 -15.2370 -15.2335 -14.4461 -14.4445
    -6.3591  -6.3561  -3.8328  -3.8289  -3.3283  -3.3222  -2.9328  -2.9306
    -1.6279  -1.6268  -1.2536  -1.2508  -1.2109  -1.2078   0.1217   0.1239
     0.3423   0.3448   2.6237   2.6308   2.8992   2.9012   3.2273

          k = 0.0000 0.1443 0.0000 ( 37697 PWs)   bands (ev):

   -61.8921 -61.8912 -48.2905 -48.2903 -48.2898 -48.2896 -48.2888 -48.2887
   -48.2882 -48.2880 -48.2453 -48.2451 -48.2449 -48.2448 -48.2437 -48.2435
   -48.2434 -48.2433 -48.2260 -48.2256 -48.2244 -48.2242 -36.0056 -36.0046
   -35.9397 -35.9383 -35.9083 -35.9070 -15.0706 -15.0672 -14.3600 -14.3582
    -6.1339  -6.1308  -4.3186  -4.3142  -3.2530  -3.2469  -2.7134  -2.7118
    -2.0770  -2.0747  -1.4985  -1.4950  -1.4554  -1.4546   0.0032   0.0046
     0.5329   0.5348   2.0303   2.0369   2.7995   2.8013   3.4838

          k = 0.0000 0.2165 0.0000 ( 37653 PWs)   bands (ev):

   -61.8880 -61.8871 -48.2905 -48.2903 -48.2890 -48.2888 -48.2888 -48.2887
   -48.2874 -48.2872 -48.2456 -48.2453 -48.2451 -48.2448 -48.2441 -48.2437
   -48.2435 -48.2433 -48.2256 -48.2252 -48.2240 -48.2238 -35.9964 -35.9954
   -35.9841 -35.9828 -35.9187 -35.9173 -14.8077 -14.8044 -14.2236 -14.2216
    -5.7932  -5.7901  -4.7480  -4.7434  -3.2574  -3.2543  -3.2014  -3.1954
    -2.4344  -2.4336  -1.7222  -1.7184  -1.5562  -1.5557  -0.0279  -0.0269
     0.6393   0.6407   1.6689   1.6751   2.7340   2.7358   3.8543

          k = 0.0000 0.2887 0.0000 ( 37721 PWs)   bands (ev):

   -61.8832 -61.8823 -48.2905 -48.2902 -48.2889 -48.2886 -48.2881 -48.2879
   -48.2865 -48.2863 -48.2461 -48.2454 -48.2452 -48.2449 -48.2445 -48.2438
   -48.2437 -48.2433 -48.2252 -48.2248 -48.2236 -48.2233 -36.0372 -36.0358
   -35.9845 -35.9835 -35.9309 -35.9295 -14.4745 -14.4712 -14.0458 -14.0435
    -5.4818  -5.4782  -4.9879  -4.9839  -4.2794  -4.2759  -3.2558  -3.2501
    -2.6198  -2.6196  -1.8093  -1.8086  -1.7657  -1.7617   0.0535   0.0544
     0.6444   0.6455   1.7754   1.7819   2.7352   2.7370   4.3308

          k = 0.0000 0.3608 0.0000 ( 37749 PWs)   bands (ev):

   -61.8783 -61.8774 -48.2906 -48.2901 -48.2889 -48.2885 -48.2872 -48.2870
   -48.2856 -48.2854 -48.2465 -48.2456 -48.2454 -48.2449 -48.2449 -48.2440
   -48.2438 -48.2434 -48.2247 -48.2243 -48.2231 -48.2229 -36.0891 -36.0877
   -35.9732 -35.9722 -35.9430 -35.9417 -14.1262 -14.1230 -13.8263 -13.8238
    -5.5986  -5.5943  -5.2368  -5.2336  -4.7237  -4.7206  -3.4043  -3.3989
    -2.9800  -2.9798  -2.0746  -2.0739  -1.6605  -1.6565   0.3131   0.3138
     0.6213   0.6226   2.1944   2.2008   2.7718   2.7738   4.8858

          k = 0.0000 0.4330 0.0000 ( 37785 PWs)   bands (ev):

   -61.8742 -61.8733 -48.2906 -48.2900 -48.2890 -48.2884 -48.2865 -48.2863
   -48.2848 -48.2847 -48.2468 -48.2457 -48.2455 -48.2452 -48.2450 -48.2441
   -48.2440 -48.2435 -48.2243 -48.2239 -48.2227 -48.2225 -36.1329 -36.1314
   -35.9636 -35.9625 -35.9533 -35.9520 -13.8623 -13.8589 -13.5474 -13.5448
    -6.1990  -6.1952  -5.5766  -5.5734  -4.5340  -4.5315  -3.5635  -3.5582
    -3.2344  -3.2336  -2.2480  -2.2474  -1.5268  -1.5232   0.6359   0.6376
     0.6781   0.6785   2.7105   2.7158   2.8083   2.8106   5.1526

          k = 0.0000 0.5052 0.0000 ( 37822 PWs)   bands (ev):

   -61.8714 -61.8705 -48.2907 -48.2900 -48.2890 -48.2884 -48.2859 -48.2858
   -48.2843 -48.2842 -48.2471 -48.2458 -48.2456 -48.2455 -48.2450 -48.2442
   -48.2441 -48.2435 -48.2241 -48.2237 -48.2225 -48.2222 -36.1619 -36.1605
   -35.9602 -35.9588 -35.9571 -35.9561 -13.7171 -13.7135 -13.2855 -13.2830
    -6.7566  -6.7527  -5.5979  -5.5954  -4.7011  -4.6987  -3.6756  -3.6703
    -3.1143  -3.1129  -2.3762  -2.3756  -1.4396  -1.4363   0.6850   0.6873
     1.0194   1.0196   2.8308   2.8333   3.1585   3.1620   4.6756

          k = 0.0000-0.5774 0.0000 ( 37832 PWs)   bands (ev):

   -61.8705 -61.8696 -48.2907 -48.2900 -48.2891 -48.2883 -48.2858 -48.2856
   -48.2841 -48.2840 -48.2472 -48.2458 -48.2456 -48.2456 -48.2451 -48.2442
   -48.2441 -48.2435 -48.2240 -48.2236 -48.2224 -48.2221 -36.1721 -36.1706
   -35.9626 -35.9612 -35.9548 -35.9538 -13.6696 -13.6660 -13.1790 -13.1764
    -6.9618  -6.9580  -5.5683  -5.5663  -4.8440  -4.8413  -3.7152  -3.7100
    -2.9857  -2.9841  -2.4446  -2.4441  -1.4119  -1.4088   0.7126   0.7150
     1.1663   1.1664   2.8381   2.8406   3.3792   3.3814   4.3498

          k = 0.0625 0.1083 0.0000 ( 37709 PWs)   bands (ev):

   -61.8930 -61.8921 -48.2905 -48.2903 -48.2900 -48.2898 -48.2888 -48.2887
   -48.2884 -48.2882 -48.2452 -48.2451 -48.2449 -48.2448 -48.2436 -48.2435
   -48.2433 -48.2433 -48.2261 -48.2257 -48.2245 -48.2242 -36.0077 -36.0066
   -35.9296 -35.9283 -35.9064 -35.9050 -15.1254 -15.1219 -14.3883 -14.3866
    -6.2072  -6.2041  -4.1896  -4.1854  -3.2818  -3.2757  -2.7338  -2.7322
    -1.8761  -1.8745  -1.4986  -1.4953  -1.3801  -1.3789   0.0637   0.0653
     0.4326   0.4346   2.2577   2.2650   2.7553   2.7573   3.4059

          k = 0.0625 0.1804 0.0000 ( 37703 PWs)   bands (ev):

   -61.8896 -61.8887 -48.2904 -48.2903 -48.2894 -48.2891 -48.2888 -48.2887
   -48.2877 -48.2875 -48.2455 -48.2452 -48.2450 -48.2448 -48.2439 -48.2436
   -48.2434 -48.2433 -48.2258 -48.2254 -48.2242 -48.2239 -35.9998 -35.9987
   -35.9662 -35.9649 -35.9158 -35.9145 -14.9103 -14.9069 -14.2772 -14.2753
    -5.9192  -5.9162  -4.6034  -4.5988  -3.2762  -3.2703  -2.8105  -2.8083
    -2.4532  -2.4510  -1.7533  -1.7503  -1.4120  -1.4113   0.0632   0.0643
     0.4333   0.4345   1.9381   1.9447   2.5815   2.5832   3.7146

          k = 0.0625 0.2526 0.0000 ( 37702 PWs)   bands (ev):

   -61.8851 -61.8842 -48.2904 -48.2902 -48.2888 -48.2886 -48.2886 -48.2883
   -48.2869 -48.2867 -48.2459 -48.2453 -48.2451 -48.2449 -48.2443 -48.2437
   -48.2436 -48.2434 -48.2253 -48.2249 -48.2238 -48.2235 -36.0139 -36.0126
   -35.9891 -35.9881 -35.9282 -35.9269 -14.6102 -14.6069 -14.1212 -14.1190
    -5.5517  -5.5485  -4.9476  -4.9431  -3.8352  -3.8315  -3.2220  -3.2172
    -2.5990  -2.5974  -1.9633  -1.9609  -1.4434  -1.4422  -0.0007  -0.0000
     0.5133   0.5143   1.8308   1.8363   2.5525   2.5549   4.1368

          k = 0.0625 0.3248 0.0000 ( 37734 PWs)   bands (ev):

   -61.8802 -61.8794 -48.2905 -48.2901 -48.2888 -48.2885 -48.2877 -48.2874
   -48.2860 -48.2858 -48.2463 -48.2455 -48.2453 -48.2450 -48.2447 -48.2439
   -48.2438 -48.2434 -48.2249 -48.2245 -48.2233 -48.2230 -36.0649 -36.0635
   -35.9779 -35.9768 -35.9416 -35.9403 -14.2618 -14.2586 -13.9276 -13.9252
    -5.4447  -5.4405  -4.9237  -4.9207  -4.7795  -4.7757  -3.4614  -3.4570
    -2.7245  -2.7234  -2.2783  -2.2761  -1.4333  -1.4312   0.0499   0.0505
     0.6620   0.6628   1.9675   1.9720   2.6451   2.6485   4.6597

          k = 0.0625 0.3969 0.0000 ( 37770 PWs)   bands (ev):

   -61.8758 -61.8749 -48.2905 -48.2900 -48.2888 -48.2884 -48.2869 -48.2866
   -48.2852 -48.2850 -48.2467 -48.2457 -48.2454 -48.2451 -48.2450 -48.2441
   -48.2439 -48.2435 -48.2245 -48.2241 -48.2229 -48.2226 -36.1116 -36.1102
   -35.9674 -35.9664 -35.9539 -35.9525 -13.9456 -13.9424 -13.6834 -13.6808
    -5.8148  -5.8108  -5.4805  -5.4772  -4.5582  -4.5553  -3.7065  -3.7024
    -2.9887  -2.9873  -2.4964  -2.4944  -1.3654  -1.3630   0.2468   0.2473
     0.8189   0.8199   2.2548   2.2575   2.8174   2.8218   5.2116

          k = 0.0625 0.4691 0.0000 ( 37798 PWs)   bands (ev):

   -61.8723 -61.8714 -48.2905 -48.2899 -48.2889 -48.2882 -48.2862 -48.2860
   -48.2846 -48.2844 -48.2469 -48.2458 -48.2455 -48.2454 -48.2451 -48.2443
   -48.2439 -48.2435 -48.2241 -48.2238 -48.2226 -48.2223 -36.1471 -36.1457
   -35.9637 -35.9624 -35.9590 -35.9580 -13.7482 -13.7447 -13.3978 -13.3952
    -6.4698  -6.4660  -5.5869  -5.5840  -4.5527  -4.5503  -3.8003  -3.7959
    -3.1037  -3.1019  -2.6018  -2.6001  -1.3254  -1.3231   0.4884   0.4896
     1.0011   1.0020   2.4795   2.4815   3.0749   3.0789   5.1402

          k = 0.0625 0.5413 0.0000 ( 37791 PWs)   bands (ev):

   -61.8705 -61.8696 -48.2905 -48.2898 -48.2889 -48.2882 -48.2859 -48.2857
   -48.2842 -48.2841 -48.2471 -48.2459 -48.2455 -48.2455 -48.2451 -48.2444
   -48.2439 -48.2436 -48.2240 -48.2236 -48.2224 -48.2221 -36.1663 -36.1648
   -35.9686 -35.9672 -35.9548 -35.9539 -13.6550 -13.6514 -13.2026 -13.2001
    -6.8566  -6.8528  -5.5693  -5.5671  -4.7625  -4.7600  -3.8179  -3.8131
    -2.9905  -2.9887  -2.6741  -2.6727  -1.3265  -1.3243   0.6683   0.6704
     1.1309   1.1313   2.5768   2.5789   3.3187   3.3212   4.6472

          k = 0.1250 0.2165 0.0000 ( 37731 PWs)   bands (ev):

   -61.8858 -61.8849 -48.2904 -48.2902 -48.2888 -48.2887 -48.2886 -48.2885
   -48.2871 -48.2869 -48.2459 -48.2453 -48.2451 -48.2450 -48.2443 -48.2437
   -48.2435 -48.2435 -48.2254 -48.2250 -48.2238 -48.2236 -36.0041 -36.0027
   -35.9910 -35.9899 -35.9288 -35.9274 -14.6567 -14.6534 -14.1470 -14.1449
    -5.5824  -5.5794  -4.9152  -4.9105  -3.6936  -3.6891  -3.0089  -3.0068
    -2.8634  -2.8592  -1.9310  -1.9290  -1.3219  -1.3212   0.0537   0.0542
     0.3145   0.3156   2.1632   2.1707   2.1855   2.1871   4.0738

          k = 0.1250 0.2887 0.0000 ( 37723 PWs)   bands (ev):

   -61.8813 -61.8804 -48.2903 -48.2900 -48.2886 -48.2884 -48.2880 -48.2878
   -48.2863 -48.2862 -48.2462 -48.2454 -48.2452 -48.2451 -48.2446 -48.2438
   -48.2437 -48.2436 -48.2250 -48.2246 -48.2234 -48.2231 -36.0476 -36.0462
   -35.9806 -35.9796 -35.9447 -35.9434 -14.3343 -14.3311 -13.9798 -13.9774
    -5.2686  -5.2647  -5.0795  -5.0759  -4.4614  -4.4576  -3.4613  -3.4582
    -2.9531  -2.9494  -2.1989  -2.1975  -1.1954  -1.1942  -0.1590  -0.1585
     0.6073   0.6081   1.8742   1.8755   2.4740   2.4814   4.5457

          k = 0.1250 0.3608 0.0000 ( 37761 PWs)   bands (ev):

   -61.8768 -61.8759 -48.2902 -48.2898 -48.2886 -48.2881 -48.2873 -48.2871
   -48.2856 -48.2855 -48.2465 -48.2456 -48.2453 -48.2452 -48.2450 -48.2440
   -48.2437 -48.2436 -48.2246 -48.2242 -48.2230 -48.2227 -36.0905 -36.0891
   -35.9708 -35.9697 -35.9605 -35.9592 -13.9942 -13.9910 -13.7789 -13.7762
    -5.4716  -5.4672  -5.2613  -5.2578  -4.6653  -4.6623  -3.8493  -3.8460
    -3.0524  -3.0493  -2.6291  -2.6277  -1.0646  -1.0631  -0.1237  -0.1234
     0.8898   0.8906   1.7923   1.7935   2.7839   2.7903   5.1063

          k = 0.1250 0.4330 0.0000 ( 37768 PWs)   bands (ev):

   -61.8730 -61.8721 -48.2902 -48.2896 -48.2885 -48.2880 -48.2866 -48.2864
   -48.2850 -48.2849 -48.2468 -48.2459 -48.2454 -48.2452 -48.2452 -48.2443
   -48.2438 -48.2437 -48.2242 -48.2238 -48.2226 -48.2224 -36.1265 -36.1251
   -35.9758 -35.9745 -35.9605 -35.9595 -13.7442 -13.7409 -13.5157 -13.5130
    -6.0612  -6.0574  -5.5203  -5.5168  -4.3946  -4.3920  -4.0766  -4.0730
    -3.1640  -3.1614  -2.9778  -2.9760  -1.0325  -1.0313   0.1197   0.1203
     1.0800   1.0811   1.9021   1.9034   3.0643   3.0689   5.5481

          k = 0.1250 0.5052 0.0000 ( 37794 PWs)   bands (ev):

   -61.8705 -61.8696 -48.2902 -48.2895 -48.2885 -48.2878 -48.2862 -48.2861
   -48.2845 -48.2845 -48.2470 -48.2461 -48.2454 -48.2454 -48.2453 -48.2445
   -48.2438 -48.2437 -48.2240 -48.2236 -48.2224 -48.2222 -36.1505 -36.1490
   -35.9849 -35.9835 -35.9549 -35.9539 -13.6123 -13.6088 -13.2668 -13.2641
    -6.5645  -6.5607  -5.5536  -5.5507  -4.5673  -4.5647  -4.0283  -4.0244
    -3.2453  -3.2430  -3.0417  -3.0398  -1.0897  -1.0887   0.4575   0.4587
     1.1294   1.1305   2.0688   2.0703   3.2523   3.2552   5.2775

          k = 0.1250 0.5774 0.0000 ( 37780 PWs)   bands (ev):

   -61.8696 -61.8687 -48.2902 -48.2894 -48.2885 -48.2878 -48.2861 -48.2859
   -48.2844 -48.2843 -48.2470 -48.2461 -48.2455 -48.2454 -48.2453 -48.2446
   -48.2438 -48.2438 -48.2239 -48.2235 -48.2223 -48.2221 -36.1588 -36.1573
   -35.9881 -35.9868 -35.9528 -35.9518 -13.5687 -13.5650 -13.1674 -13.1648
    -6.7480  -6.7442  -5.5456  -5.5430  -4.6819  -4.6792  -4.0247  -4.0207
    -3.2745  -3.2723  -2.9963  -2.9944  -1.1288  -1.1278   0.6590   0.6607
     1.0809   1.0817   2.1517   2.1535   3.3174   3.3195   5.0252

          k = 0.1875 0.3248 0.0000 ( 37725 PWs)   bands (ev):

   -61.8772 -61.8763 -48.2901 -48.2896 -48.2884 -48.2880 -48.2875 -48.2872
   -48.2858 -48.2856 -48.2465 -48.2455 -48.2454 -48.2452 -48.2449 -48.2439
   -48.2438 -48.2437 -48.2246 -48.2242 -48.2230 -48.2228 -36.0810 -36.0796
   -35.9729 -35.9718 -35.9641 -35.9628 -14.0095 -14.0064 -13.8135 -13.8109
    -5.3393  -5.3348  -5.0927  -5.0889  -4.7543  -4.7515  -3.8523  -3.8498
    -3.3333  -3.3293  -2.5098  -2.5087  -0.8961  -0.8948  -0.3035  -0.3032
     0.8882   0.8889   1.6054   1.6061   2.7728   2.7800   5.0617

          k = 0.1875 0.3969 0.0000 ( 37753 PWs)   bands (ev):

   -61.8734 -61.8725 -48.2899 -48.2893 -48.2882 -48.2877 -48.2870 -48.2868
   -48.2854 -48.2852 -48.2467 -48.2458 -48.2455 -48.2452 -48.2452 -48.2442
   -48.2439 -48.2437 -48.2242 -48.2239 -48.2226 -48.2224 -36.1097 -36.1083
   -35.9881 -35.9867 -35.9614 -35.9604 -13.7065 -13.7034 -13.6161 -13.6133
    -5.6924  -5.6886  -5.4430  -5.4390  -4.3537  -4.3510  -4.2044  -4.2016
    -3.6589  -3.6554  -2.9086  -2.9073  -0.6898  -0.6888  -0.2355  -0.2354
     1.1095   1.1103   1.5248   1.5254   3.0664   3.0714   5.6280

          k = 0.1875 0.4691 0.0000 ( 37759 PWs)   bands (ev):

   -61.8705 -61.8696 -48.2897 -48.2890 -48.2880 -48.2874 -48.2867 -48.2865
   -48.2850 -48.2849 -48.2469 -48.2460 -48.2455 -48.2453 -48.2452 -48.2445
   -48.2440 -48.2437 -48.2240 -48.2236 -48.2224 -48.2222 -36.1306 -36.1292
   -36.0052 -36.0038 -35.9549 -35.9539 -13.5461 -13.5428 -13.3538 -13.3510
    -6.1766  -6.1729  -5.5103  -5.5067  -4.4263  -4.4233  -4.1176  -4.1148
    -3.8845  -3.8817  -3.1786  -3.1770  -0.7412  -0.7408   0.1062   0.1068
     1.1495   1.1507   1.6758   1.6765   3.2314   3.2345   5.7724

          k = 0.1875 0.5413 0.0000 ( 37793 PWs)   bands (ev):

   -61.8689 -61.8680 -48.2896 -48.2889 -48.2879 -48.2872 -48.2865 -48.2863
   -48.2848 -48.2847 -48.2469 -48.2462 -48.2456 -48.2453 -48.2452 -48.2447
   -48.2440 -48.2437 -48.2238 -48.2235 -48.2222 -48.2220 -36.1416 -36.1401
   -36.0148 -36.0134 -35.9513 -35.9503 -13.4686 -13.4650 -13.1843 -13.1815
    -6.4539  -6.4502  -5.5388  -5.5356  -4.5199  -4.5168  -4.1604  -4.1573
    -3.9592  -3.9570  -3.1998  -3.1979  -0.8292  -0.8288   0.4729   0.4737
     1.0020   1.0033   1.8865   1.8875   3.2277   3.2299   5.6553

          k = 0.2500 0.4330 0.0000 ( 37711 PWs)   bands (ev):

   -61.8705 -61.8696 -48.2894 -48.2888 -48.2877 -48.2871 -48.2869 -48.2867
   -48.2852 -48.2850 -48.2468 -48.2459 -48.2457 -48.2452 -48.2452 -48.2443
   -48.2442 -48.2436 -48.2240 -48.2236 -48.2224 -48.2222 -36.1202 -36.1188
   -36.0158 -36.0144 -35.9549 -35.9539 -13.4843 -13.4810 -13.4242 -13.4212
    -5.9561  -5.9524  -5.4788  -5.4748  -4.4078  -4.4053  -4.2478  -4.2445
    -4.0433  -4.0404  -3.2743  -3.2730  -0.3304  -0.3299  -0.3096  -0.3086
     1.1450   1.1459   1.5510   1.5513   3.2299   3.2330   5.9812

          k = 0.2500 0.5052 0.0000 ( 37776 PWs)   bands (ev):

   -61.8685 -61.8676 -48.2890 -48.2884 -48.2874 -48.2869 -48.2867 -48.2867
   -48.2853 -48.2851 -48.2468 -48.2462 -48.2459 -48.2452 -48.2452 -48.2446
   -48.2443 -48.2436 -48.2238 -48.2235 -48.2222 -48.2220 -36.1228 -36.1213
   -36.0389 -36.0374 -35.9505 -35.9495 -13.3746 -13.3713 -13.2372 -13.2342
    -6.1038  -6.1002  -5.5305  -5.5267  -4.6672  -4.6637  -4.3851  -4.3829
    -3.9695  -3.9672  -3.5122  -3.5106  -0.4327  -0.4327   0.0630   0.0635
     0.9652   0.9665   1.8425   1.8430   3.1577   3.1599   5.7856

          k = 0.2500 0.5774 0.0000 ( 37791 PWs)   bands (ev):

   -61.8678 -61.8669 -48.2889 -48.2882 -48.2872 -48.2870 -48.2867 -48.2866
   -48.2853 -48.2851 -48.2467 -48.2463 -48.2459 -48.2451 -48.2451 -48.2448
   -48.2444 -48.2436 -48.2237 -48.2234 -48.2221 -48.2220 -36.1222 -36.1208
   -36.0484 -36.0470 -35.9489 -35.9479 -13.3360 -13.3325 -13.1673 -13.1643
    -6.1467  -6.1431  -5.5607  -5.5569  -4.8201  -4.8166  -4.2053  -4.2031
    -4.1858  -4.1838  -3.5130  -3.5112  -0.4836  -0.4835   0.3217   0.3217
     0.7579   0.7599   2.0613   2.0621   3.0207   3.0225   5.6859

          k = 0.3125 0.5413 0.0000 ( 37789 PWs)   bands (ev):

   -61.8675 -61.8666 -48.2884 -48.2878 -48.2873 -48.2871 -48.2868 -48.2861
   -48.2857 -48.2855 -48.2466 -48.2463 -48.2462 -48.2451 -48.2450 -48.2447
   -48.2447 -48.2436 -48.2237 -48.2234 -48.2220 -48.2220 -36.1047 -36.1033
   -36.0709 -36.0695 -35.9481 -35.9471 -13.2566 -13.2532 -13.1947 -13.1916
    -5.8425  -5.8389  -5.5704  -5.5664  -5.2598  -5.2563  -4.2184  -4.2165
    -3.8803  -3.8783  -3.8778  -3.8768  -0.1462  -0.1457   0.0312   0.0313
     0.6583   0.6605   2.2693   2.2701   2.8335   2.8351   5.6183

     the Fermi energy is    -0.2953 ev

!    total energy              =   -2326.92177053 Ry
     total all-electron energy =    -35628.669599 Ry
     estimated scf accuracy    <          2.9E-09 Ry
     smearing contrib. (-TS)   =       0.00090277 Ry
     internal energy E=F+TS    =   -2326.92267330 Ry

     The total energy is F=E-TS. E is the sum of the following terms:
     one-electron contribution =  -17643.05558072 Ry
     hartree contribution      =    8809.75850255 Ry
     xc contribution           =    -152.42421545 Ry
     ewald contribution        =    7669.31317945 Ry
     one-center paw contrib.   =   -1010.51455914 Ry

     convergence has been achieved in  23 iterations

     Writing all to output data dir ./tmp/cleave_032/mose2_cleave_032.save/ :
     XML data file, charge density, pseudopotentials, collected wavefunctions

     init_run     :     11.91s CPU     12.12s WALL (       1 calls)
     electrons    :    449.41s CPU    459.34s WALL (       1 calls)

     Called by init_run:
     wfcinit      :      5.28s CPU      5.31s WALL (       1 calls)
     potinit      :      5.92s CPU      5.97s WALL (       1 calls)
     hinit0       :      0.05s CPU      0.05s WALL (       1 calls)

     Called by electrons:
     c_bands      :    375.25s CPU    379.41s WALL (      24 calls)
     sum_band     :     48.79s CPU     51.54s WALL (      24 calls)
     v_of_rho     :     15.21s CPU     16.08s WALL (      24 calls)
     newd         :      8.92s CPU     11.13s WALL (      24 calls)
     PAW_pot      :      1.51s CPU      1.55s WALL (      24 calls)
     mix_rho      :      5.77s CPU      5.82s WALL (      24 calls)
     vdW_kernel   :      5.49s CPU      5.49s WALL (       1 calls)

     Called by c_bands:
     init_us_2    :      2.95s CPU      2.96s WALL (    1470 calls)
     cegterg      :    366.63s CPU    370.59s WALL (     720 calls)

     Called by *egterg:
     cdiaghg      :     12.22s CPU     12.24s WALL (    3802 calls)
     h_psi        :    156.72s CPU    157.95s WALL (    3862 calls)
     s_psi        :     30.58s CPU     30.62s WALL (    3862 calls)
     g_psi        :      0.54s CPU      0.54s WALL (    3112 calls)

     Called by h_psi:
     h_psi:calbec :     47.41s CPU     48.04s WALL (    3862 calls)
     vloc_psi     :     71.05s CPU     71.60s WALL (    3862 calls)
                                        0.00s GPU  (    3862 calls)
     add_vuspsi   :     37.70s CPU     37.75s WALL (    3862 calls)

     General routines
     calbec       :     67.66s CPU     68.55s WALL (    4582 calls)
     fft          :      5.99s CPU      6.12s WALL (    1511 calls)
     ffts         :      2.10s CPU      2.11s WALL (    2754 calls)
     fftw         :     78.72s CPU     79.36s WALL (  218768 calls)
     interpolate  :      0.11s CPU      0.11s WALL (      24 calls)

     Parallel routines

     PWSCF        :   7m42.01s CPU   7m52.47s WALL


   This run was terminated on:  13: 4:18  20Jun2026            

=------------------------------------------------------------------------------=
   JOB DONE.
=------------------------------------------------------------------------------=
Note: The following floating-point exceptions are signalling: IEEE_UNDERFLOW_FLAG IEEE_DENORMAL
Note: The following floating-point exceptions are signalling: IEEE_UNDERFLOW_FLAG IEEE_DENORMAL
Note: The following floating-point exceptions are signalling: IEEE_UNDERFLOW_FLAG IEEE_DENORMAL
Note: The following floating-point exceptions are signalling: IEEE_UNDERFLOW_FLAG IEEE_DENORMAL
Note: The following floating-point exceptions are signalling: IEEE_UNDERFLOW_FLAG IEEE_DENORMAL
Note: The following floating-point exceptions are signalling: IEEE_UNDERFLOW_FLAG IEEE_DENORMAL
Note: The following floating-point exceptions are signalling: IEEE_UNDERFLOW_FLAG IEEE_DENORMAL
Note: The following floating-point exceptions are signalling: IEEE_UNDERFLOW_FLAG IEEE_DENORMAL
Note: The following floating-point exceptions are signalling: IEEE_UNDERFLOW_FLAG IEEE_DENORMAL
Note: The following floating-point exceptions are signalling: IEEE_UNDERFLOW_FLAG IEEE_DENORMAL
Note: The following floating-point exceptions are signalling: IEEE_UNDERFLOW_FLAG IEEE_DENORMAL
Note: The following floating-point exceptions are signalling: IEEE_UNDERFLOW_FLAG IEEE_DENORMAL
Note: The following floating-point exceptions are signalling: IEEE_UNDERFLOW_FLAG IEEE_DENORMAL
Note: The following floating-point exceptions are signalling: IEEE_UNDERFLOW_FLAG IEEE_DENORMAL
Note: The following floating-point exceptions are signalling: IEEE_UNDERFLOW_FLAG IEEE_DENORMAL
Note: The following floating-point exceptions are signalling: IEEE_UNDERFLOW_FLAG IEEE_DENORMAL
Note: The following floating-point exceptions are signalling: IEEE_UNDERFLOW_FLAG IEEE_DENORMAL
Note: The following floating-point exceptions are signalling: IEEE_UNDERFLOW_FLAG IEEE_DENORMAL
Note: The following floating-point exceptions are signalling: IEEE_UNDERFLOW_FLAG IEEE_DENORMAL
Note: The following floating-point exceptions are signalling: IEEE_UNDERFLOW_FLAG IEEE_DENORMAL
Note: The following floating-point exceptions are signalling: IEEE_UNDERFLOW_FLAG IEEE_DENORMAL
Note: The following floating-point exceptions are signalling: IEEE_UNDERFLOW_FLAG IEEE_DENORMAL
Note: The following floating-point exceptions are signalling: IEEE_UNDERFLOW_FLAG IEEE_DENORMAL
Note: The following floating-point exceptions are signalling: IEEE_UNDERFLOW_FLAG IEEE_DENORMAL
