
     Program PWSCF v.7.5 starts on 20Jun2026 at  9:33:43 

     This program is part of the open-source Quantum ESPRESSO suite
     for quantum simulation of materials; please cite
         "P. Giannozzi et al., J. Phys.:Condens. Matter 21 395502 (2009);
         "P. Giannozzi et al., J. Phys.:Condens. Matter 29 465901 (2017);
         "P. Giannozzi et al., J. Chem. Phys. 152 154105 (2020);
          URL http://www.quantum-espresso.org", 
     in publications or presentations arising from this work. More details at
     http://www.quantum-espresso.org/quote

     Parallel version (MPI), running on    24 processors

     MPI processes distributed on     1 nodes
     6513 MiB available memory on the printing compute node when the environment starts

     Waiting for input...
     Reading input from standard input

     Current dimensions of program PWSCF are:
     Max number of different atomic species (ntypx) = 10
     Max number of k-points (npk) =  40000
     Max angular momentum in pseudopotentials (lmaxx) =  4
     file Mo.pbe-spn-kjpaw_psl.1.0.0.UPF: wavefunction(s)  4S 4D renormalized
     file Se.pbe-dn-kjpaw_psl.1.0.0.UPF: wavefunction(s)  4S 4P 3D renormalized

     IMPORTANT: XC functional enforced from input :
     Exchange-correlation= VDW-DF2-B86R
                           (   1   4  26   0   2   0   0)
     Any further DFT definition will be discarded
     Please, verify this is what you really want


     R & G space division:  proc/nbgrp/npool/nimage =      24
     Subspace diagonalization in iterative solution of the eigenvalue problem:
     a serial algorithm will be used


     Parallelization info
     --------------------
     sticks:   dense  smooth     PW     G-vecs:    dense   smooth      PW
     Min          69      35     10                35537    12585    1924
     Max          70      36     11                35620    12648    1981
     Sum        1675     847    241               853823   302525   46513

     Using Slab Decomposition



     bravais-lattice index     =            4
     lattice parameter (alat)  =       6.1794  a.u.
     unit-cell volume          =    3124.5879 (a.u.)^3
     number of atoms/cell      =            6
     number of atomic types    =            2
     number of electrons       =        92.00
     number of Kohn-Sham states=           55
     kinetic-energy cutoff     =      80.0000  Ry
     charge density cutoff     =     640.0000  Ry
     scf convergence threshold =      1.0E-08
     mixing beta               =       0.3000
     number of iterations used =            8  local-TF  mixing
     Exchange-correlation= VDW-DF2-B86R
                           (   1   4  26   0   2   0   0)

     celldm(1)=   6.179404  celldm(2)=   0.000000  celldm(3)=  15.290520
     celldm(4)=   0.000000  celldm(5)=   0.000000  celldm(6)=   0.000000

     crystal axes: (cart. coord. in units of alat)
               a(1) = (   1.000000   0.000000   0.000000 )  
               a(2) = (  -0.500000   0.866025   0.000000 )  
               a(3) = (   0.000000   0.000000  15.290520 )  

     reciprocal axes: (cart. coord. in units 2 pi/alat)
               b(1) = (  1.000000  0.577350 -0.000000 )  
               b(2) = (  0.000000  1.154701  0.000000 )  
               b(3) = (  0.000000 -0.000000  0.065400 )  


     PseudoPot. # 1 for Mo read from file:
     ./pseudo/Mo.pbe-spn-kjpaw_psl.1.0.0.UPF
     MD5 check sum: 4396e0c640fcce5c25f020efccf1ab12
     Pseudo is Projector augmented-wave + core cor, Zval = 14.0
     Generated using &quot;atomic&quot; code by A. Dal Corso  v.6.3
     Shape of augmentation charge: PSQ
     Using radial grid of 1229 points,  6 beta functions with: 
                l(1) =   0
                l(2) =   0
                l(3) =   1
                l(4) =   1
                l(5) =   2
                l(6) =   2
     Q(r) pseudized with 0 coefficients 


     PseudoPot. # 2 for Se read from file:
     ./pseudo/Se.pbe-dn-kjpaw_psl.1.0.0.UPF
     MD5 check sum: ac240dd2bae32a30e0bf3a38df9c8785
     Pseudo is Projector augmented-wave + core cor, Zval = 16.0
     Generated using &quot;atomic&quot; code by A. Dal Corso  v.6.3
     Shape of augmentation charge: PSQ
     Using radial grid of 1211 points,  6 beta functions with: 
                l(1) =   0
                l(2) =   0
                l(3) =   1
                l(4) =   1
                l(5) =   2
                l(6) =   2
     Q(r) pseudized with 0 coefficients 


     atomic species   valence    mass     pseudopotential
     Mo               14.00    95.96000     Mo( 1.00)
     Se               16.00    78.96000     Se( 1.00)

      6 Sym. Ops. (no inversion) found



   Cartesian axes

     site n.     atom                  positions (alat units)
         1        Se     tau(   1) = (  -0.0000005   0.5773506   6.1238532  )
         2        Mo     tau(   2) = (   0.0000000   0.0000000   6.6502752  )
         3        Se     tau(   3) = (   0.5000005   0.2886748   7.1775994  )
         4        Se     tau(   4) = (  -0.0000005   0.5773506   8.4793119  )
         5        Mo     tau(   5) = (   0.5000005   0.2886748   9.0064985  )
         6        Se     tau(   6) = (   0.0000000   0.0000000   9.5336391  )

     number of k points=    30  Methfessel-Paxton smearing, width (Ry)=  0.0200
                       cart. coord. in units 2pi/alat
        k(    1) = (   0.0000000   0.0000000   0.0000000), wk =   0.0078125
        k(    2) = (   0.0000000   0.0721688   0.0000000), wk =   0.0468750
        k(    3) = (   0.0000000   0.1443376   0.0000000), wk =   0.0468750
        k(    4) = (   0.0000000   0.2165064   0.0000000), wk =   0.0468750
        k(    5) = (   0.0000000   0.2886751   0.0000000), wk =   0.0468750
        k(    6) = (   0.0000000   0.3608439   0.0000000), wk =   0.0468750
        k(    7) = (   0.0000000   0.4330127   0.0000000), wk =   0.0468750
        k(    8) = (   0.0000000   0.5051815   0.0000000), wk =   0.0468750
        k(    9) = (   0.0000000  -0.5773503   0.0000000), wk =   0.0234375
        k(   10) = (   0.0625000   0.1082532   0.0000000), wk =   0.0468750
        k(   11) = (   0.0625000   0.1804220   0.0000000), wk =   0.0937500
        k(   12) = (   0.0625000   0.2525907   0.0000000), wk =   0.0937500
        k(   13) = (   0.0625000   0.3247595   0.0000000), wk =   0.0937500
        k(   14) = (   0.0625000   0.3969283   0.0000000), wk =   0.0937500
        k(   15) = (   0.0625000   0.4690971   0.0000000), wk =   0.0937500
        k(   16) = (   0.0625000   0.5412659   0.0000000), wk =   0.0937500
        k(   17) = (   0.1250000   0.2165064   0.0000000), wk =   0.0468750
        k(   18) = (   0.1250000   0.2886751   0.0000000), wk =   0.0937500
        k(   19) = (   0.1250000   0.3608439   0.0000000), wk =   0.0937500
        k(   20) = (   0.1250000   0.4330127   0.0000000), wk =   0.0937500
        k(   21) = (   0.1250000   0.5051815   0.0000000), wk =   0.0937500
        k(   22) = (   0.1250000   0.5773503   0.0000000), wk =   0.0468750
        k(   23) = (   0.1875000   0.3247595   0.0000000), wk =   0.0468750
        k(   24) = (   0.1875000   0.3969283   0.0000000), wk =   0.0937500
        k(   25) = (   0.1875000   0.4690971   0.0000000), wk =   0.0937500
        k(   26) = (   0.1875000   0.5412659   0.0000000), wk =   0.0937500
        k(   27) = (   0.2500000   0.4330127   0.0000000), wk =   0.0468750
        k(   28) = (   0.2500000   0.5051815   0.0000000), wk =   0.0937500
        k(   29) = (   0.2500000   0.5773503   0.0000000), wk =   0.0468750
        k(   30) = (   0.3125000   0.5412659   0.0000000), wk =   0.0468750

     Dense  grid:   853823 G-vectors     FFT dimensions: (  50,  50, 768)

     Smooth grid:   302525 G-vectors     FFT dimensions: (  36,  36, 540)

     Estimated max dynamical RAM per process >     171.88 MB

     Estimated total dynamical RAM >       4.03 GB

     Initial potential from superposition of free atoms

     starting charge      91.9979, renormalised to      92.0000

     negative rho (up, down):  1.964E-04 0.000E+00


     %%%%%%%%%%%%%%%%%%%%%%%%%%%%%%%%%%%%%%%%%%%%%%%%%%%%%%%%%%%%%%%%%%%%%%%%
     %                                                                      %
     % You are using vdW-DF, which was implemented by the Thonhauser group. %
     % Please cite the following two papers that made this development      %
     % possible and the two reviews that describe the various versions:     %
     %                                                                      %
     %   T. Thonhauser et al., PRL 115, 136402 (2015).                      %
     %   T. Thonhauser et al., PRB 76, 125112 (2007).                       %
     %   K. Berland et al., Rep. Prog. Phys. 78, 066501 (2015).             %
     %   D.C. Langreth et al., J. Phys.: Condens. Matter 21, 084203 (2009). %
     %                                                                      %
     % If you are calculating stress with vdW-DF, please also cite:         %
     %                                                                      %
     %   R. Sabatini et al., J. Phys.: Condens. Matter 24, 424209 (2012).   %
     %                                                                      %
     %%%%%%%%%%%%%%%%%%%%%%%%%%%%%%%%%%%%%%%%%%%%%%%%%%%%%%%%%%%%%%%%%%%%%%%%

     %%%%%%%%%%%%%%%%%%%%%%%%%%%%%%%%%%%%%%%%%%%%%%%%%%%%%%%%%%%%%%%%%%%%%%%%
     %                                                                      %
     %  vdW-DF NEWS:                                                        %
     %                                                                      %
     %  * vdW-DF3 is now available. DOI: 10.1021/acs.jctc.0c00471           %
     %    use with input_dft = 'vdW-DF3-opt1' or 'vdW-DF3-opt2'             %
     %                                                                      %
     %  * Unscreened and range-separated hybrid vdW-DF-cx functionals       %
     %    DOI: 10.1063/1.4986522 and 10.1088/1361-648X/ac2ad2               %
     %    use with input_dft = 'vdW-DF-cx0'    and 'vdW-DF-ahcx'            %
     %  * Unscreened and range-separated hybrid vdW-DF2-b86r functionals    %
     %    DOI: 10.1063/1.4986522 and DOI: 10.1103/PhysRevX.12.041003        %
     %    use with input_dft = 'vdW-DF2-br0' and 'vdW-DF2-ahbr'             %
     %                                                                      %
     %%%%%%%%%%%%%%%%%%%%%%%%%%%%%%%%%%%%%%%%%%%%%%%%%%%%%%%%%%%%%%%%%%%%%%%%


     Starting wfcs are   56 randomized atomic wfcs
     Checking if some PAW data can be deallocated... 

     total cpu time spent up to now is       12.0 secs

     per-process dynamical memory:    79.7 Mb

     Self-consistent Calculation

     iteration #  1     ecut=    80.00 Ry     beta= 0.30
     Davidson diagonalization with overlap
     ethr =  1.00E-02,  avg # of iterations =  4.2

     Threshold (ethr) on eigenvalues was too large:
     Diagonalizing with lowered threshold

     Davidson diagonalization with overlap
     ethr =  4.40E-04,  avg # of iterations =  2.0

     negative rho (up, down):  1.145E-04 0.000E+00

     total cpu time spent up to now is       49.7 secs

     total energy              =   -2326.97033696 Ry
     estimated scf accuracy    <       0.45190760 Ry

     iteration #  2     ecut=    80.00 Ry     beta= 0.30
     Davidson diagonalization with overlap
     ethr =  4.91E-04,  avg # of iterations =  1.3

     negative rho (up, down):  9.359E-05 0.000E+00

     total cpu time spent up to now is       65.8 secs

     total energy              =   -2326.92354311 Ry
     estimated scf accuracy    <       0.23710551 Ry

     iteration #  3     ecut=    80.00 Ry     beta= 0.30
     Davidson diagonalization with overlap
     ethr =  2.58E-04,  avg # of iterations =  4.6

     negative rho (up, down):  2.812E-05 0.000E+00

     total cpu time spent up to now is       84.7 secs

     total energy              =   -2326.93104351 Ry
     estimated scf accuracy    <       0.02875763 Ry

     iteration #  4     ecut=    80.00 Ry     beta= 0.30
     Davidson diagonalization with overlap
     ethr =  3.13E-05,  avg # of iterations =  8.7

     negative rho (up, down):  1.381E-05 0.000E+00

     total cpu time spent up to now is      106.2 secs

     total energy              =   -2326.93151523 Ry
     estimated scf accuracy    <       0.00837708 Ry

     iteration #  5     ecut=    80.00 Ry     beta= 0.30
     Davidson diagonalization with overlap
     c_bands:  1 eigenvalues not converged
     ethr =  9.11E-06,  avg # of iterations =  5.2

     negative rho (up, down):  1.392E-06 0.000E+00

     total cpu time spent up to now is      127.6 secs

     total energy              =   -2326.93131650 Ry
     estimated scf accuracy    <       0.00350018 Ry

     iteration #  6     ecut=    80.00 Ry     beta= 0.30
     Davidson diagonalization with overlap
     c_bands:  1 eigenvalues not converged
     ethr =  3.80E-06,  avg # of iterations =  5.8

     negative rho (up, down):  6.100E-07 0.000E+00

     total cpu time spent up to now is      147.9 secs

     total energy              =   -2326.93122937 Ry
     estimated scf accuracy    <       0.00197745 Ry

     iteration #  7     ecut=    80.00 Ry     beta= 0.30
     Davidson diagonalization with overlap
     ethr =  2.15E-06,  avg # of iterations =  5.1

     negative rho (up, down):  5.826E-04 0.000E+00

     total cpu time spent up to now is      166.4 secs

     total energy              =   -2326.93099422 Ry
     estimated scf accuracy    <       0.00184361 Ry

     iteration #  8     ecut=    80.00 Ry     beta= 0.30
     Davidson diagonalization with overlap
     ethr =  2.00E-06,  avg # of iterations =  5.9

     negative rho (up, down):  1.588E-03 0.000E+00

     total cpu time spent up to now is      185.5 secs

     total energy              =   -2326.93092866 Ry
     estimated scf accuracy    <       0.00118208 Ry

     iteration #  9     ecut=    80.00 Ry     beta= 0.30
     Davidson diagonalization with overlap
     ethr =  1.28E-06,  avg # of iterations =  2.2

     negative rho (up, down):  3.051E-03 0.000E+00

     total cpu time spent up to now is      202.8 secs

     total energy              =   -2326.93088275 Ry
     estimated scf accuracy    <       0.00074640 Ry

     iteration # 10     ecut=    80.00 Ry     beta= 0.30
     Davidson diagonalization with overlap
     ethr =  8.11E-07,  avg # of iterations =  7.3

     negative rho (up, down):  5.119E-03 0.000E+00

     total cpu time spent up to now is      222.8 secs

     total energy              =   -2326.93089549 Ry
     estimated scf accuracy    <       0.00041081 Ry

     iteration # 11     ecut=    80.00 Ry     beta= 0.30
     Davidson diagonalization with overlap
     ethr =  4.47E-07,  avg # of iterations =  4.1

     negative rho (up, down):  3.484E-03 0.000E+00

     total cpu time spent up to now is      240.8 secs

     total energy              =   -2326.93086039 Ry
     estimated scf accuracy    <       0.00034097 Ry

     iteration # 12     ecut=    80.00 Ry     beta= 0.30
     Davidson diagonalization with overlap
     ethr =  3.71E-07,  avg # of iterations =  2.1

     negative rho (up, down):  5.338E-03 0.000E+00

     total cpu time spent up to now is      257.7 secs

     total energy              =   -2326.93081680 Ry
     estimated scf accuracy    <       0.00024991 Ry

     iteration # 13     ecut=    80.00 Ry     beta= 0.30
     Davidson diagonalization with overlap
     ethr =  2.72E-07,  avg # of iterations =  5.0

     negative rho (up, down):  5.866E-03 0.000E+00

     total cpu time spent up to now is      275.7 secs

     total energy              =   -2326.93074202 Ry
     estimated scf accuracy    <       0.00017833 Ry

     iteration # 14     ecut=    80.00 Ry     beta= 0.30
     Davidson diagonalization with overlap
     ethr =  1.94E-07,  avg # of iterations =  4.9

     negative rho (up, down):  6.129E-03 0.000E+00

     total cpu time spent up to now is      294.7 secs

     total energy              =   -2326.93077972 Ry
     estimated scf accuracy    <       0.00011955 Ry

     iteration # 15     ecut=    80.00 Ry     beta= 0.30
     Davidson diagonalization with overlap
     ethr =  1.30E-07,  avg # of iterations =  2.6

     negative rho (up, down):  4.872E-03 0.000E+00

     total cpu time spent up to now is      311.8 secs

     total energy              =   -2326.93080006 Ry
     estimated scf accuracy    <       0.00007668 Ry

     iteration # 16     ecut=    80.00 Ry     beta= 0.30
     Davidson diagonalization with overlap
     ethr =  8.34E-08,  avg # of iterations =  5.2

     negative rho (up, down):  2.899E-03 0.000E+00

     total cpu time spent up to now is      329.6 secs

     total energy              =   -2326.93077661 Ry
     estimated scf accuracy    <       0.00004702 Ry

     iteration # 17     ecut=    80.00 Ry     beta= 0.30
     Davidson diagonalization with overlap
     ethr =  5.11E-08,  avg # of iterations =  4.3

     negative rho (up, down):  1.344E-03 0.000E+00

     total cpu time spent up to now is      347.1 secs

     total energy              =   -2326.93081822 Ry
     estimated scf accuracy    <       0.00001476 Ry

     iteration # 18     ecut=    80.00 Ry     beta= 0.30
     Davidson diagonalization with overlap
     ethr =  1.60E-08,  avg # of iterations =  6.2

     negative rho (up, down):  9.923E-04 0.000E+00

     total cpu time spent up to now is      369.3 secs

     total energy              =   -2326.93082971 Ry
     estimated scf accuracy    <       0.00000407 Ry

     iteration # 19     ecut=    80.00 Ry     beta= 0.30
     Davidson diagonalization with overlap
     ethr =  4.43E-09,  avg # of iterations =  2.7

     negative rho (up, down):  4.422E-04 0.000E+00

     total cpu time spent up to now is      387.9 secs

     total energy              =   -2326.93083453 Ry
     estimated scf accuracy    <       0.00000190 Ry

     iteration # 20     ecut=    80.00 Ry     beta= 0.30
     Davidson diagonalization with overlap
     ethr =  2.06E-09,  avg # of iterations =  4.9

     negative rho (up, down):  2.604E-04 0.000E+00

     total cpu time spent up to now is      407.1 secs

     total energy              =   -2326.93083791 Ry
     estimated scf accuracy    <       0.00000070 Ry

     iteration # 21     ecut=    80.00 Ry     beta= 0.30
     Davidson diagonalization with overlap
     ethr =  7.60E-10,  avg # of iterations =  3.0

     negative rho (up, down):  2.287E-04 0.000E+00

     total cpu time spent up to now is      426.6 secs

     total energy              =   -2326.93083823 Ry
     estimated scf accuracy    <       0.00000012 Ry

     iteration # 22     ecut=    80.00 Ry     beta= 0.30
     Davidson diagonalization with overlap
     ethr =  1.27E-10,  avg # of iterations =  2.0

     negative rho (up, down):  2.106E-04 0.000E+00

     total cpu time spent up to now is      446.3 secs

     total energy              =   -2326.93083779 Ry
     estimated scf accuracy    <       0.00000005 Ry

     iteration # 23     ecut=    80.00 Ry     beta= 0.30
     Davidson diagonalization with overlap
     ethr =  5.20E-11,  avg # of iterations =  2.5

     negative rho (up, down):  2.091E-04 0.000E+00

     total cpu time spent up to now is      467.0 secs

     total energy              =   -2326.93083784 Ry
     estimated scf accuracy    <       0.00000001 Ry

     iteration # 24     ecut=    80.00 Ry     beta= 0.30
     Davidson diagonalization with overlap
     ethr =  1.35E-11,  avg # of iterations =  2.0

     negative rho (up, down):  2.318E-04 0.000E+00

     total cpu time spent up to now is      485.0 secs

     End of self-consistent calculation

          k = 0.0000 0.0000 0.0000 ( 37787 PWs)   bands (ev):

   -61.9028 -61.9010 -48.3014 -48.3014 -48.2994 -48.2994 -48.2987 -48.2987
   -48.2965 -48.2965 -48.2567 -48.2567 -48.2543 -48.2543 -48.2537 -48.2537
   -48.2510 -48.2510 -48.2384 -48.2360 -48.2349 -48.2323 -36.0213 -36.0198
   -35.9059 -35.9059 -35.9033 -35.9033 -15.3069 -15.2903 -14.4929 -14.4690
    -6.5125  -6.3833  -3.5464  -3.3674  -3.3674  -3.3600  -3.3600  -3.1539
    -1.6967  -1.4582  -1.0711  -1.0711  -1.0672  -1.0671   0.2224   0.2225
     0.2295   0.2295   2.9392   2.9392   2.9491   2.9491   3.4137

          k = 0.0000 0.0722 0.0000 ( 37755 PWs)   bands (ev):

   -61.9018 -61.9000 -48.3014 -48.3012 -48.2994 -48.2992 -48.2986 -48.2985
   -48.2965 -48.2964 -48.2568 -48.2568 -48.2543 -48.2543 -48.2538 -48.2537
   -48.2510 -48.2510 -48.2383 -48.2359 -48.2348 -48.2322 -36.0191 -36.0176
   -35.9165 -35.9139 -35.9083 -35.9058 -15.2501 -15.2335 -14.4632 -14.4396
    -6.4349  -6.3056  -3.9285  -3.7701  -3.3354  -3.3280  -3.0464  -2.8229
    -1.7182  -1.5273  -1.2671  -1.2400  -1.2180  -1.2137   0.1046   0.1375
     0.3350   0.3423   2.6218   2.6357   2.8893   2.9014   3.5266

          k = 0.0000 0.1443 0.0000 ( 37697 PWs)   bands (ev):

   -61.8991 -61.8973 -48.3014 -48.3007 -48.2993 -48.2986 -48.2986 -48.2979
   -48.2965 -48.2958 -48.2570 -48.2568 -48.2545 -48.2543 -48.2539 -48.2538
   -48.2512 -48.2511 -48.2380 -48.2356 -48.2346 -48.2319 -36.0127 -36.0112
   -35.9466 -35.9440 -35.9153 -35.9127 -15.0836 -15.0672 -14.3764 -14.3539
    -6.2099  -6.0808  -4.3914  -4.2649  -3.2601  -3.2526  -2.8199  -2.6281
    -2.1062  -2.0536  -1.5273  -1.5055  -1.5005  -1.3740  -0.0398   0.0510
     0.5244   0.5330   2.0008   2.0799   2.7873   2.8034   3.7945

          k = 0.0000 0.2165 0.0000 ( 37653 PWs)   bands (ev):

   -61.8950 -61.8932 -48.3013 -48.2999 -48.2993 -48.2986 -48.2978 -48.2971
   -48.2965 -48.2950 -48.2572 -48.2569 -48.2548 -48.2544 -48.2542 -48.2539
   -48.2514 -48.2511 -48.2376 -48.2352 -48.2342 -48.2315 -36.0035 -36.0020
   -35.9911 -35.9885 -35.9256 -35.9230 -14.8205 -14.8045 -14.2389 -14.2183
    -5.8688  -5.7423  -4.8047  -4.7036  -3.2718  -3.2547  -3.2084  -3.2010
    -2.5305  -2.3570  -1.7294  -1.7236  -1.6154  -1.4991  -0.0909   0.0360
     0.6295   0.6398   1.5920   1.7803   2.7197   2.7395   4.1675

          k = 0.0000 0.2887 0.0000 ( 37721 PWs)   bands (ev):

   -61.8901 -61.8883 -48.3013 -48.2993 -48.2990 -48.2986 -48.2969 -48.2965
   -48.2962 -48.2941 -48.2576 -48.2570 -48.2551 -48.2546 -48.2544 -48.2540
   -48.2517 -48.2512 -48.2372 -48.2348 -48.2337 -48.2311 -36.0441 -36.0415
   -35.9915 -35.9901 -35.9378 -35.9352 -14.4868 -14.4717 -14.0596 -14.0414
    -5.5479  -5.4428  -5.0378  -4.9454  -4.2888  -4.2797  -3.2629  -3.2556
    -2.6951  -2.5628  -1.8476  -1.7802  -1.7733  -1.7663  -0.0263   0.1237
     0.6340   0.6447   1.6509   1.9434   2.7188   2.7424   4.6337

          k = 0.0000 0.3608 0.0000 ( 37749 PWs)   bands (ev):

   -61.8853 -61.8834 -48.3013 -48.2993 -48.2986 -48.2981 -48.2964 -48.2960
   -48.2953 -48.2932 -48.2579 -48.2571 -48.2554 -48.2547 -48.2547 -48.2541
   -48.2520 -48.2513 -48.2367 -48.2343 -48.2333 -48.2306 -36.0961 -36.0934
   -35.9802 -35.9788 -35.9500 -35.9474 -14.1375 -14.1241 -13.8385 -13.8231
    -5.6332  -5.5821  -5.2518  -5.2337  -4.7792  -4.6816  -3.4115  -3.4042
    -3.0315  -2.9440  -2.1086  -2.0525  -1.6688  -1.6599   0.2331   0.3761
     0.6115   0.6206   2.0394   2.3853   2.7532   2.7809   5.1388

          k = 0.0000 0.4330 0.0000 ( 37785 PWs)   bands (ev):

   -61.8811 -61.8793 -48.3013 -48.2992 -48.2986 -48.2973 -48.2964 -48.2953
   -48.2946 -48.2924 -48.2582 -48.2572 -48.2557 -48.2549 -48.2548 -48.2542
   -48.2522 -48.2514 -48.2364 -48.2339 -48.2329 -48.2303 -36.1399 -36.1372
   -35.9706 -35.9692 -35.9603 -35.9577 -13.8721 -13.8613 -13.5581 -13.5455
    -6.2100  -6.1990  -5.6120  -5.5573  -4.5668  -4.5157  -3.5708  -3.5634
    -3.2885  -3.1961  -2.2763  -2.2325  -1.5365  -1.5247   0.6126   0.6276
     0.6335   0.7235   2.5485   2.7878   2.8193   2.8805   5.0280

          k = 0.0000 0.5052 0.0000 ( 37822 PWs)   bands (ev):

   -61.8784 -61.8766 -48.3013 -48.2992 -48.2986 -48.2968 -48.2964 -48.2948
   -48.2941 -48.2919 -48.2584 -48.2573 -48.2559 -48.2550 -48.2548 -48.2542
   -48.2523 -48.2515 -48.2361 -48.2337 -48.2327 -48.2300 -36.1689 -36.1662
   -35.9671 -35.9645 -35.9641 -35.9627 -13.7253 -13.7172 -13.2946 -13.2852
    -6.7675  -6.7568  -5.6253  -5.5860  -4.7247  -4.6901  -3.6829  -3.6755
    -3.1692  -3.0771  -2.3974  -2.3680  -1.4506  -1.4362   0.6778   0.6817
     0.9756   1.0430   2.8090   2.8431   3.0232   3.2584   4.5475

          k = 0.0000-0.5774 0.0000 ( 37832 PWs)   bands (ev):

   -61.8774 -61.8756 -48.3013 -48.2992 -48.2986 -48.2966 -48.2964 -48.2946
   -48.2939 -48.2918 -48.2584 -48.2573 -48.2559 -48.2551 -48.2548 -48.2542
   -48.2523 -48.2515 -48.2360 -48.2336 -48.2326 -48.2299 -36.1791 -36.1764
   -35.9695 -35.9669 -35.9619 -35.9605 -13.6771 -13.6702 -13.1870 -13.1796
    -6.9725  -6.9624  -5.5856  -5.5669  -4.8679  -4.8317  -3.7225  -3.7151
    -3.0324  -2.9571  -2.4635  -2.4387  -1.4234  -1.4080   0.7055   0.7093
     1.1389   1.1737   2.8158   2.8508   3.2797   3.4194   4.2186

          k = 0.0625 0.1083 0.0000 ( 37709 PWs)   bands (ev):

   -61.9000 -61.8982 -48.3013 -48.3009 -48.2993 -48.2988 -48.2986 -48.2981
   -48.2965 -48.2960 -48.2569 -48.2568 -48.2544 -48.2543 -48.2539 -48.2538
   -48.2511 -48.2510 -48.2381 -48.2357 -48.2347 -48.2320 -36.0148 -36.0133
   -35.9366 -35.9340 -35.9133 -35.9107 -15.1384 -15.1219 -14.4050 -14.3821
    -6.2832  -6.1539  -4.2680  -4.1330  -3.2889  -3.2815  -2.8503  -2.6336
    -1.9082  -1.8531  -1.5168  -1.4963  -1.4323  -1.3079   0.0278   0.1031
     0.4251   0.4320   2.2402   2.2927   2.7485   2.7560   3.7134

          k = 0.0625 0.1804 0.0000 ( 37703 PWs)   bands (ev):

   -61.8966 -61.8947 -48.3013 -48.3002 -48.2993 -48.2986 -48.2982 -48.2975
   -48.2965 -48.2954 -48.2571 -48.2569 -48.2547 -48.2544 -48.2541 -48.2539
   -48.2513 -48.2511 -48.2378 -48.2354 -48.2343 -48.2317 -36.0068 -36.0054
   -35.9732 -35.9706 -35.9228 -35.9202 -14.9232 -14.9070 -14.2929 -14.2716
    -5.9954  -5.8670  -4.6654  -4.5558  -3.2832  -3.2760  -2.8705  -2.7751
    -2.4920  -2.4195  -1.7860  -1.7347  -1.4766  -1.3394   0.0120   0.1149
     0.4243   0.4372   1.8902   2.0128   2.5725   2.5846   4.0277

          k = 0.0625 0.2526 0.0000 ( 37702 PWs)   bands (ev):

   -61.8921 -61.8902 -48.3013 -48.2994 -48.2992 -48.2985 -48.2974 -48.2967
   -48.2964 -48.2945 -48.2574 -48.2570 -48.2549 -48.2545 -48.2543 -48.2540
   -48.2516 -48.2512 -48.2374 -48.2350 -48.2339 -48.2313 -36.0209 -36.0183
   -35.9961 -35.9947 -35.9352 -35.9326 -14.6227 -14.6072 -14.1356 -14.1164
    -5.6262  -5.5046  -4.9968  -4.9061  -3.8432  -3.8365  -3.2355  -3.2182
    -2.6559  -2.5583  -1.9915  -1.9457  -1.4913  -1.4019  -0.0611   0.0497
     0.4860   0.5384   1.7512   1.9391   2.5416   2.5667   4.4468

          k = 0.0625 0.3248 0.0000 ( 37734 PWs)   bands (ev):

   -61.8872 -61.8854 -48.3012 -48.2992 -48.2985 -48.2985 -48.2965 -48.2964
   -48.2958 -48.2936 -48.2577 -48.2571 -48.2553 -48.2546 -48.2546 -48.2541
   -48.2518 -48.2513 -48.2369 -48.2345 -48.2335 -48.2308 -36.0718 -36.0692
   -35.9849 -35.9835 -35.9486 -35.9460 -14.2736 -14.2594 -13.9405 -13.9240
    -5.4951  -5.4173  -4.9710  -4.8955  -4.7958  -4.7646  -3.4742  -3.4577
    -2.7681  -2.6949  -2.2921  -2.2743  -1.4647  -1.4130  -0.0179   0.1015
     0.6353   0.6811   1.8628   2.0836   2.6189   2.6927   4.9487

          k = 0.0625 0.3969 0.0000 ( 37770 PWs)   bands (ev):

   -61.8827 -61.8809 -48.3012 -48.2991 -48.2985 -48.2977 -48.2963 -48.2957
   -48.2950 -48.2928 -48.2580 -48.2572 -48.2555 -48.2548 -48.2547 -48.2542
   -48.2521 -48.2514 -48.2365 -48.2341 -48.2331 -48.2304 -36.1186 -36.1159
   -35.9745 -35.9730 -35.9608 -35.9583 -13.9562 -13.9441 -13.6947 -13.6809
    -5.8265  -5.8154  -5.5138  -5.4627  -4.6055  -4.5259  -3.7226  -3.6998
    -3.0205  -2.9694  -2.5125  -2.4907  -1.3845  -1.3572   0.1924   0.2821
     0.7922   0.8349   2.1642   2.3217   2.7527   2.9186   5.3584

          k = 0.0625 0.4691 0.0000 ( 37798 PWs)   bands (ev):

   -61.8793 -61.8775 -48.3012 -48.2991 -48.2985 -48.2971 -48.2962 -48.2951
   -48.2944 -48.2922 -48.2583 -48.2573 -48.2558 -48.2550 -48.2548 -48.2542
   -48.2522 -48.2515 -48.2362 -48.2338 -48.2327 -48.2301 -36.1541 -36.1514
   -35.9707 -35.9681 -35.9660 -35.9646 -13.7570 -13.7478 -13.4075 -13.3968
    -6.4808  -6.4699  -5.6180  -5.5714  -4.5769  -4.5419  -3.8177  -3.7933
    -3.1428  -3.0782  -2.6163  -2.5981  -1.3361  -1.3253   0.4564   0.5036
     0.9720   1.0160   2.4403   2.4942   2.9649   3.1832   4.9921

          k = 0.0625 0.5413 0.0000 ( 37791 PWs)   bands (ev):

   -61.8774 -61.8756 -48.3012 -48.2991 -48.2985 -48.2967 -48.2962 -48.2947
   -48.2940 -48.2919 -48.2584 -48.2574 -48.2559 -48.2550 -48.2549 -48.2543
   -48.2523 -48.2515 -48.2360 -48.2336 -48.2326 -48.2299 -36.1733 -36.1705
   -35.9756 -35.9730 -35.9619 -35.9605 -13.6626 -13.6554 -13.2109 -13.2031
    -6.8674  -6.8572  -5.5899  -5.5642  -4.7863  -4.7508  -3.8272  -3.8175
    -3.0306  -2.9666  -2.6850  -2.6743  -1.3338  -1.3296   0.6550   0.6691
     1.1046   1.1395   2.5543   2.5832   3.2190   3.3738   4.5052

          k = 0.1250 0.2165 0.0000 ( 37731 PWs)   bands (ev):

   -61.8928 -61.8909 -48.3012 -48.2996 -48.2992 -48.2985 -48.2976 -48.2969
   -48.2964 -48.2947 -48.2574 -48.2570 -48.2549 -48.2545 -48.2543 -48.2540
   -48.2515 -48.2512 -48.2374 -48.2350 -48.2340 -48.2313 -36.0111 -36.0084
   -35.9980 -35.9966 -35.9357 -35.9331 -14.6693 -14.6537 -14.1617 -14.1422
    -5.6592  -5.5329  -4.9650  -4.8737  -3.7011  -3.6942  -3.0572  -2.9759
    -2.8705  -2.8642  -1.9816  -1.8966  -1.3861  -1.2616   0.0228   0.0669
     0.2603   0.3793   2.0912   2.1713   2.1868   2.2786   4.3858

          k = 0.1250 0.2887 0.0000 ( 37723 PWs)   bands (ev):

   -61.8883 -61.8864 -48.3011 -48.2991 -48.2988 -48.2984 -48.2968 -48.2962
   -48.2961 -48.2940 -48.2577 -48.2571 -48.2552 -48.2546 -48.2545 -48.2541
   -48.2517 -48.2513 -48.2370 -48.2346 -48.2336 -48.2309 -36.0546 -36.0520
   -35.9877 -35.9862 -35.9517 -35.9491 -14.3464 -14.3317 -13.9930 -13.9759
    -5.3369  -5.2410  -5.1254  -5.0271  -4.4692  -4.4627  -3.4852  -3.4484
    -2.9641  -2.9510  -2.2284  -2.1823  -1.2520  -1.1538  -0.2118  -0.1185
     0.5551   0.6569   1.8514   1.8835   2.3961   2.5988   4.8470

          k = 0.1250 0.3608 0.0000 ( 37761 PWs)   bands (ev):

   -61.8838 -61.8820 -48.3010 -48.2989 -48.2982 -48.2981 -48.2961 -48.2961
   -48.2954 -48.2933 -48.2579 -48.2572 -48.2554 -48.2547 -48.2547 -48.2542
   -48.2520 -48.2514 -48.2366 -48.2342 -48.2332 -48.2305 -36.0975 -36.0948
   -35.9778 -35.9763 -35.9674 -35.9650 -14.0053 -13.9924 -13.7904 -13.7760
    -5.5047  -5.4572  -5.2737  -5.2596  -4.7234  -4.6208  -3.8670  -3.8407
    -3.0641  -3.0504  -2.6455  -2.6242  -1.1067  -1.0394  -0.1827  -0.0791
     0.8519   0.9162   1.7565   1.8136   2.6837   2.9200   5.3704

          k = 0.1250 0.4330 0.0000 ( 37768 PWs)   bands (ev):

   -61.8800 -61.8782 -48.3009 -48.2988 -48.2981 -48.2975 -48.2959 -48.2955
   -48.2948 -48.2926 -48.2582 -48.2573 -48.2557 -48.2549 -48.2549 -48.2543
   -48.2522 -48.2515 -48.2363 -48.2338 -48.2328 -48.2302 -36.1335 -36.1308
   -35.9828 -35.9802 -35.9676 -35.9661 -13.7537 -13.7434 -13.5259 -13.5142
    -6.0715  -6.0619  -5.5522  -5.5040  -4.4284  -4.3778  -4.1017  -4.0592
    -3.1749  -3.1634  -2.9956  -2.9709  -1.0598  -1.0206   0.0689   0.1538
     1.0570   1.0895   1.8617   1.9239   2.9571   3.1785   5.5430

          k = 0.1250 0.5052 0.0000 ( 37794 PWs)   bands (ev):

   -61.8774 -61.8756 -48.3008 -48.2987 -48.2981 -48.2971 -48.2959 -48.2951
   -48.2944 -48.2922 -48.2583 -48.2574 -48.2558 -48.2550 -48.2549 -48.2543
   -48.2523 -48.2516 -48.2360 -48.2336 -48.2326 -48.2299 -36.1574 -36.1547
   -35.9919 -35.9892 -35.9619 -35.9605 -13.6203 -13.6126 -13.2753 -13.2668
    -6.5752  -6.5650  -5.5767  -5.5451  -4.5896  -4.5578  -4.0490  -4.0185
    -3.2554  -3.2459  -3.0672  -3.0285  -1.1097  -1.0845   0.4233   0.4755
     1.1127   1.1316   2.0363   2.0806   3.1642   3.3141   5.1087

          k = 0.1250 0.5774 0.0000 ( 37780 PWs)   bands (ev):

   -61.8765 -61.8747 -48.3008 -48.2987 -48.2981 -48.2969 -48.2958 -48.2949
   -48.2942 -48.2921 -48.2584 -48.2575 -48.2559 -48.2551 -48.2550 -48.2543
   -48.2523 -48.2516 -48.2359 -48.2335 -48.2325 -48.2298 -36.1658 -36.1631
   -35.9951 -35.9925 -35.9599 -35.9585 -13.5760 -13.5694 -13.1751 -13.1683
    -6.7588  -6.7487  -5.5605  -5.5452  -4.7056  -4.6705  -4.0391  -4.0206
    -3.2839  -3.2756  -3.0204  -2.9857  -1.1476  -1.1246   0.6466   0.6571
     1.0605   1.0854   2.1368   2.1456   3.2420   3.3546   4.8545

          k = 0.1875 0.3248 0.0000 ( 37725 PWs)   bands (ev):

   -61.8842 -61.8823 -48.3008 -48.2988 -48.2983 -48.2981 -48.2963 -48.2959
   -48.2956 -48.2934 -48.2579 -48.2572 -48.2554 -48.2547 -48.2547 -48.2542
   -48.2519 -48.2515 -48.2366 -48.2342 -48.2332 -48.2305 -36.0880 -36.0853
   -35.9799 -35.9782 -35.9710 -35.9687 -14.0208 -14.0076 -13.8252 -13.8105
    -5.3806  -5.3187  -5.1008  -5.0956  -4.8122  -4.7072  -3.8740  -3.8403
    -3.3411  -3.3340  -2.5212  -2.5100  -0.9530  -0.8620  -0.3592  -0.2568
     0.8413   0.9249   1.5919   1.6045   2.6650   2.9181   5.3405

          k = 0.1875 0.3969 0.0000 ( 37753 PWs)   bands (ev):

   -61.8803 -61.8785 -48.3006 -48.2985 -48.2978 -48.2978 -48.2958 -48.2956
   -48.2951 -48.2930 -48.2581 -48.2574 -48.2556 -48.2549 -48.2548 -48.2543
   -48.2521 -48.2516 -48.2363 -48.2339 -48.2328 -48.2302 -36.1167 -36.1140
   -35.9951 -35.9925 -35.9684 -35.9670 -13.7166 -13.7059 -13.6262 -13.6140
    -5.7011  -5.6950  -5.4737  -5.4274  -4.4088  -4.3213  -4.2204  -4.1900
    -3.6680  -3.6590  -2.9174  -2.9110  -0.7325  -0.6703  -0.2867  -0.1954
     1.0774   1.1257   1.4942   1.5409   2.9612   3.1839   5.8286

          k = 0.1875 0.4691 0.0000 ( 37759 PWs)   bands (ev):

   -61.8774 -61.8756 -48.3003 -48.2982 -48.2976 -48.2975 -48.2955 -48.2954
   -48.2948 -48.2927 -48.2582 -48.2575 -48.2557 -48.2550 -48.2550 -48.2544
   -48.2523 -48.2516 -48.2360 -48.2336 -48.2326 -48.2299 -36.1376 -36.1349
   -36.0122 -36.0095 -35.9619 -35.9605 -13.5545 -13.5462 -13.3626 -13.3534
    -6.1865  -6.1780  -5.5327  -5.5018  -4.4476  -4.4192  -4.1501  -4.0969
    -3.8963  -3.8816  -3.1865  -3.1819  -0.7703  -0.7306   0.0671   0.1292
     1.1330   1.1512   1.6286   1.7031   3.1579   3.2887   5.6421

          k = 0.1875 0.5413 0.0000 ( 37793 PWs)   bands (ev):

   -61.8758 -61.8740 -48.3002 -48.2981 -48.2975 -48.2973 -48.2953 -48.2953
   -48.2946 -48.2925 -48.2583 -48.2576 -48.2558 -48.2551 -48.2551 -48.2544
   -48.2523 -48.2517 -48.2359 -48.2335 -48.2324 -48.2298 -36.1486 -36.1459
   -36.0218 -36.0192 -35.9583 -35.9569 -13.4758 -13.4694 -13.1917 -13.1853
    -6.4646  -6.4547  -5.5531  -5.5378  -4.5422  -4.5107  -4.1801  -4.1526
    -3.9715  -3.9564  -3.2122  -3.1993  -0.8542  -0.8215   0.4519   0.4781
     0.9878   1.0017   1.8485   1.8994   3.1756   3.2517   5.4145

          k = 0.2500 0.4330 0.0000 ( 37711 PWs)   bands (ev):

   -61.8774 -61.8756 -48.3001 -48.2980 -48.2977 -48.2973 -48.2957 -48.2952
   -48.2949 -48.2929 -48.2582 -48.2575 -48.2557 -48.2550 -48.2550 -48.2544
   -48.2522 -48.2517 -48.2360 -48.2336 -48.2326 -48.2299 -36.1272 -36.1245
   -36.0228 -36.0201 -35.9619 -35.9605 -13.4929 -13.4848 -13.4329 -13.4232
    -5.9652  -5.9584  -5.4994  -5.4715  -4.4333  -4.3988  -4.2551  -4.2501
    -4.0795  -4.0156  -3.2895  -3.2705  -0.3933  -0.3310  -0.3155  -0.2749
     1.1208   1.1515   1.5006   1.5844   3.1631   3.2834   5.9622

          k = 0.2500 0.5052 0.0000 ( 37776 PWs)   bands (ev):

   -61.8755 -61.8737 -48.2997 -48.2979 -48.2975 -48.2970 -48.2957 -48.2951
   -48.2947 -48.2929 -48.2582 -48.2576 -48.2557 -48.2552 -48.2551 -48.2544
   -48.2523 -48.2517 -48.2359 -48.2334 -48.2324 -48.2298 -36.1297 -36.1271
   -36.0458 -36.0432 -35.9575 -35.9561 -13.3819 -13.3756 -13.2445 -13.2379
    -6.1141  -6.1050  -5.5433  -5.5300  -4.6766  -4.6695  -4.4087  -4.3748
    -3.9911  -3.9592  -3.5243  -3.5108  -0.4628  -0.4228   0.0434   0.0678
     0.9538   0.9622   1.7748   1.8854   3.1332   3.1576   5.6845

          k = 0.2500 0.5774 0.0000 ( 37791 PWs)   bands (ev):

   -61.8748 -61.8730 -48.2995 -48.2979 -48.2973 -48.2968 -48.2958 -48.2952
   -48.2945 -48.2930 -48.2582 -48.2577 -48.2557 -48.2552 -48.2551 -48.2545
   -48.2524 -48.2517 -48.2358 -48.2334 -48.2324 -48.2297 -36.1292 -36.1265
   -36.0554 -36.0527 -35.9559 -35.9546 -13.3427 -13.3374 -13.1738 -13.1688
    -6.1575  -6.1474  -5.5711  -5.5622  -4.8291  -4.8225  -4.2370  -4.2087
    -4.1908  -4.1706  -3.5230  -3.5141  -0.5104  -0.4756   0.3028   0.3243
     0.7461   0.7568   2.0118   2.0797   3.0019   3.0168   5.5880

          k = 0.3125 0.5413 0.0000 ( 37789 PWs)   bands (ev):

   -61.8744 -61.8726 -48.2991 -48.2982 -48.2969 -48.2963 -48.2962 -48.2955
   -48.2941 -48.2933 -48.2582 -48.2578 -48.2557 -48.2553 -48.2552 -48.2545
   -48.2524 -48.2518 -48.2358 -48.2334 -48.2323 -48.2297 -36.1117 -36.1090
   -36.0779 -36.0752 -35.9551 -35.9537 -13.2632 -13.2582 -13.2008 -13.1964
    -5.8540  -5.8425  -5.5789  -5.5734  -5.2701  -5.2604  -4.2439  -4.2087
    -3.9067  -3.8886  -3.8833  -3.8594  -0.1780  -0.1358   0.0098   0.0387
     0.6506   0.6539   2.1975   2.3104   2.7861   2.8575   5.5514

     the Fermi energy is    -0.3079 ev

!    total energy              =   -2326.93083795 Ry
     total all-electron energy =    -35628.678667 Ry
     estimated scf accuracy    <          7.8E-09 Ry
     smearing contrib. (-TS)   =       0.00087056 Ry
     internal energy E=F+TS    =   -2326.93170851 Ry

     The total energy is F=E-TS. E is the sum of the following terms:
     one-electron contribution =  -26932.64321834 Ry
     hartree contribution      =   13454.53223398 Ry
     xc contribution           =    -152.42951365 Ry
     ewald contribution        =   12314.12308864 Ry
     one-center paw contrib.   =   -1010.51429913 Ry

     convergence has been achieved in  24 iterations

     Writing all to output data dir ./tmp/cleave_006/mose2_cleave_006.save/ :
     XML data file, charge density, pseudopotentials, collected wavefunctions

     init_run     :     11.66s CPU     11.85s WALL (       1 calls)
     electrons    :    465.44s CPU    473.01s WALL (       1 calls)

     Called by init_run:
     wfcinit      :      5.30s CPU      5.33s WALL (       1 calls)
     potinit      :      5.71s CPU      5.75s WALL (       1 calls)
     hinit0       :      0.05s CPU      0.06s WALL (       1 calls)

     Called by electrons:
     c_bands      :    387.91s CPU    389.19s WALL (      25 calls)
     sum_band     :     51.43s CPU     54.28s WALL (      25 calls)
     v_of_rho     :     15.29s CPU     16.19s WALL (      25 calls)
     newd         :      9.00s CPU     11.62s WALL (      25 calls)
     PAW_pot      :      1.56s CPU      1.60s WALL (      25 calls)
     mix_rho      :      6.08s CPU      6.09s WALL (      25 calls)
     vdW_kernel   :      5.27s CPU      5.27s WALL (       1 calls)

     Called by c_bands:
     init_us_2    :      3.75s CPU      3.76s WALL (    1530 calls)
     cegterg      :    381.05s CPU    382.27s WALL (     750 calls)

     Called by *egterg:
     cdiaghg      :     13.39s CPU     13.41s WALL (    3840 calls)
     h_psi        :    173.92s CPU    174.50s WALL (    3900 calls)
     s_psi        :     40.70s CPU     40.74s WALL (    3900 calls)
     g_psi        :      0.75s CPU      0.75s WALL (    3120 calls)

     Called by h_psi:
     h_psi:calbec :     48.66s CPU     48.80s WALL (    3900 calls)
     vloc_psi     :     72.76s CPU     73.16s WALL (    3900 calls)
                                        0.00s GPU  (    3900 calls)
     add_vuspsi   :     51.75s CPU     51.80s WALL (    3900 calls)

     General routines
     calbec       :     70.06s CPU     70.26s WALL (    4650 calls)
     fft          :      5.29s CPU      5.35s WALL (    1574 calls)
     ffts         :      2.13s CPU      2.13s WALL (    2879 calls)
     fftw         :     77.86s CPU     78.28s WALL (  225502 calls)
     interpolate  :      0.11s CPU      0.11s WALL (      25 calls)

     Parallel routines

     PWSCF        :   7m57.78s CPU   8m 5.76s WALL


   This run was terminated on:   9:41:48  20Jun2026            

=------------------------------------------------------------------------------=
   JOB DONE.
=------------------------------------------------------------------------------=
Note: The following floating-point exceptions are signalling: IEEE_UNDERFLOW_FLAG IEEE_DENORMAL
Note: The following floating-point exceptions are signalling: IEEE_UNDERFLOW_FLAG IEEE_DENORMAL
Note: The following floating-point exceptions are signalling: IEEE_UNDERFLOW_FLAG IEEE_DENORMAL
Note: The following floating-point exceptions are signalling: IEEE_UNDERFLOW_FLAG IEEE_DENORMAL
Note: The following floating-point exceptions are signalling: IEEE_UNDERFLOW_FLAG IEEE_DENORMAL
Note: The following floating-point exceptions are signalling: IEEE_UNDERFLOW_FLAG IEEE_DENORMAL
Note: The following floating-point exceptions are signalling: IEEE_UNDERFLOW_FLAG IEEE_DENORMAL
Note: The following floating-point exceptions are signalling: IEEE_UNDERFLOW_FLAG IEEE_DENORMAL
Note: The following floating-point exceptions are signalling: IEEE_UNDERFLOW_FLAG IEEE_DENORMAL
Note: The following floating-point exceptions are signalling: IEEE_UNDERFLOW_FLAG IEEE_DENORMAL
Note: The following floating-point exceptions are signalling: IEEE_UNDERFLOW_FLAG IEEE_DENORMAL
Note: The following floating-point exceptions are signalling: IEEE_UNDERFLOW_FLAG IEEE_DENORMAL
Note: The following floating-point exceptions are signalling: IEEE_UNDERFLOW_FLAG IEEE_DENORMAL
Note: The following floating-point exceptions are signalling: IEEE_UNDERFLOW_FLAG IEEE_DENORMAL
Note: The following floating-point exceptions are signalling: IEEE_UNDERFLOW_FLAG IEEE_DENORMAL
Note: The following floating-point exceptions are signalling: IEEE_UNDERFLOW_FLAG IEEE_DENORMAL
Note: The following floating-point exceptions are signalling: IEEE_UNDERFLOW_FLAG IEEE_DENORMAL
Note: The following floating-point exceptions are signalling: IEEE_UNDERFLOW_FLAG IEEE_DENORMAL
Note: The following floating-point exceptions are signalling: IEEE_UNDERFLOW_FLAG IEEE_DENORMAL
Note: The following floating-point exceptions are signalling: IEEE_UNDERFLOW_FLAG IEEE_DENORMAL
Note: The following floating-point exceptions are signalling: IEEE_UNDERFLOW_FLAG IEEE_DENORMAL
Note: The following floating-point exceptions are signalling: IEEE_UNDERFLOW_FLAG IEEE_DENORMAL
Note: The following floating-point exceptions are signalling: IEEE_UNDERFLOW_FLAG IEEE_DENORMAL
Note: The following floating-point exceptions are signalling: IEEE_UNDERFLOW_FLAG IEEE_DENORMAL
