
     Program PWSCF v.7.5 starts on 20Jun2026 at  9:57:18 

     This program is part of the open-source Quantum ESPRESSO suite
     for quantum simulation of materials; please cite
         "P. Giannozzi et al., J. Phys.:Condens. Matter 21 395502 (2009);
         "P. Giannozzi et al., J. Phys.:Condens. Matter 29 465901 (2017);
         "P. Giannozzi et al., J. Chem. Phys. 152 154105 (2020);
          URL http://www.quantum-espresso.org", 
     in publications or presentations arising from this work. More details at
     http://www.quantum-espresso.org/quote

     Parallel version (MPI), running on    24 processors

     MPI processes distributed on     1 nodes
     6236 MiB available memory on the printing compute node when the environment starts

     Waiting for input...
     Reading input from standard input

     Current dimensions of program PWSCF are:
     Max number of different atomic species (ntypx) = 10
     Max number of k-points (npk) =  40000
     Max angular momentum in pseudopotentials (lmaxx) =  4
     file Mo.pbe-spn-kjpaw_psl.1.0.0.UPF: wavefunction(s)  4S 4D renormalized
     file Se.pbe-dn-kjpaw_psl.1.0.0.UPF: wavefunction(s)  4S 4P 3D renormalized

     IMPORTANT: XC functional enforced from input :
     Exchange-correlation= VDW-DF2-B86R
                           (   1   4  26   0   2   0   0)
     Any further DFT definition will be discarded
     Please, verify this is what you really want


     R & G space division:  proc/nbgrp/npool/nimage =      24
     Subspace diagonalization in iterative solution of the eigenvalue problem:
     a serial algorithm will be used


     Parallelization info
     --------------------
     sticks:   dense  smooth     PW     G-vecs:    dense   smooth      PW
     Min          69      35     10                35537    12585    1924
     Max          70      36     11                35620    12648    1981
     Sum        1675     847    241               853823   302525   46513

     Using Slab Decomposition



     bravais-lattice index     =            4
     lattice parameter (alat)  =       6.1794  a.u.
     unit-cell volume          =    3124.5879 (a.u.)^3
     number of atoms/cell      =            6
     number of atomic types    =            2
     number of electrons       =        92.00
     number of Kohn-Sham states=           55
     kinetic-energy cutoff     =      80.0000  Ry
     charge density cutoff     =     640.0000  Ry
     scf convergence threshold =      1.0E-08
     mixing beta               =       0.3000
     number of iterations used =            8  local-TF  mixing
     Exchange-correlation= VDW-DF2-B86R
                           (   1   4  26   0   2   0   0)

     celldm(1)=   6.179404  celldm(2)=   0.000000  celldm(3)=  15.290520
     celldm(4)=   0.000000  celldm(5)=   0.000000  celldm(6)=   0.000000

     crystal axes: (cart. coord. in units of alat)
               a(1) = (   1.000000   0.000000   0.000000 )  
               a(2) = (  -0.500000   0.866025   0.000000 )  
               a(3) = (   0.000000   0.000000  15.290520 )  

     reciprocal axes: (cart. coord. in units 2 pi/alat)
               b(1) = (  1.000000  0.577350 -0.000000 )  
               b(2) = (  0.000000  1.154701  0.000000 )  
               b(3) = (  0.000000 -0.000000  0.065400 )  


     PseudoPot. # 1 for Mo read from file:
     ./pseudo/Mo.pbe-spn-kjpaw_psl.1.0.0.UPF
     MD5 check sum: 4396e0c640fcce5c25f020efccf1ab12
     Pseudo is Projector augmented-wave + core cor, Zval = 14.0
     Generated using &quot;atomic&quot; code by A. Dal Corso  v.6.3
     Shape of augmentation charge: PSQ
     Using radial grid of 1229 points,  6 beta functions with: 
                l(1) =   0
                l(2) =   0
                l(3) =   1
                l(4) =   1
                l(5) =   2
                l(6) =   2
     Q(r) pseudized with 0 coefficients 


     PseudoPot. # 2 for Se read from file:
     ./pseudo/Se.pbe-dn-kjpaw_psl.1.0.0.UPF
     MD5 check sum: ac240dd2bae32a30e0bf3a38df9c8785
     Pseudo is Projector augmented-wave + core cor, Zval = 16.0
     Generated using &quot;atomic&quot; code by A. Dal Corso  v.6.3
     Shape of augmentation charge: PSQ
     Using radial grid of 1211 points,  6 beta functions with: 
                l(1) =   0
                l(2) =   0
                l(3) =   1
                l(4) =   1
                l(5) =   2
                l(6) =   2
     Q(r) pseudized with 0 coefficients 


     atomic species   valence    mass     pseudopotential
     Mo               14.00    95.96000     Mo( 1.00)
     Se               16.00    78.96000     Se( 1.00)

      6 Sym. Ops. (no inversion) found



   Cartesian axes

     site n.     atom                  positions (alat units)
         1        Se     tau(   1) = (  -0.0000005   0.5773506   6.1238532  )
         2        Mo     tau(   2) = (   0.0000000   0.0000000   6.6502752  )
         3        Se     tau(   3) = (   0.5000005   0.2886748   7.1775994  )
         4        Se     tau(   4) = (  -0.0000005   0.5773506   8.6627982  )
         5        Mo     tau(   5) = (   0.5000005   0.2886748   9.1899847  )
         6        Se     tau(   6) = (   0.0000000   0.0000000   9.7171254  )

     number of k points=    30  Methfessel-Paxton smearing, width (Ry)=  0.0200
                       cart. coord. in units 2pi/alat
        k(    1) = (   0.0000000   0.0000000   0.0000000), wk =   0.0078125
        k(    2) = (   0.0000000   0.0721688   0.0000000), wk =   0.0468750
        k(    3) = (   0.0000000   0.1443376   0.0000000), wk =   0.0468750
        k(    4) = (   0.0000000   0.2165064   0.0000000), wk =   0.0468750
        k(    5) = (   0.0000000   0.2886751   0.0000000), wk =   0.0468750
        k(    6) = (   0.0000000   0.3608439   0.0000000), wk =   0.0468750
        k(    7) = (   0.0000000   0.4330127   0.0000000), wk =   0.0468750
        k(    8) = (   0.0000000   0.5051815   0.0000000), wk =   0.0468750
        k(    9) = (   0.0000000  -0.5773503   0.0000000), wk =   0.0234375
        k(   10) = (   0.0625000   0.1082532   0.0000000), wk =   0.0468750
        k(   11) = (   0.0625000   0.1804220   0.0000000), wk =   0.0937500
        k(   12) = (   0.0625000   0.2525907   0.0000000), wk =   0.0937500
        k(   13) = (   0.0625000   0.3247595   0.0000000), wk =   0.0937500
        k(   14) = (   0.0625000   0.3969283   0.0000000), wk =   0.0937500
        k(   15) = (   0.0625000   0.4690971   0.0000000), wk =   0.0937500
        k(   16) = (   0.0625000   0.5412659   0.0000000), wk =   0.0937500
        k(   17) = (   0.1250000   0.2165064   0.0000000), wk =   0.0468750
        k(   18) = (   0.1250000   0.2886751   0.0000000), wk =   0.0937500
        k(   19) = (   0.1250000   0.3608439   0.0000000), wk =   0.0937500
        k(   20) = (   0.1250000   0.4330127   0.0000000), wk =   0.0937500
        k(   21) = (   0.1250000   0.5051815   0.0000000), wk =   0.0937500
        k(   22) = (   0.1250000   0.5773503   0.0000000), wk =   0.0468750
        k(   23) = (   0.1875000   0.3247595   0.0000000), wk =   0.0468750
        k(   24) = (   0.1875000   0.3969283   0.0000000), wk =   0.0937500
        k(   25) = (   0.1875000   0.4690971   0.0000000), wk =   0.0937500
        k(   26) = (   0.1875000   0.5412659   0.0000000), wk =   0.0937500
        k(   27) = (   0.2500000   0.4330127   0.0000000), wk =   0.0468750
        k(   28) = (   0.2500000   0.5051815   0.0000000), wk =   0.0937500
        k(   29) = (   0.2500000   0.5773503   0.0000000), wk =   0.0468750
        k(   30) = (   0.3125000   0.5412659   0.0000000), wk =   0.0468750

     Dense  grid:   853823 G-vectors     FFT dimensions: (  50,  50, 768)

     Smooth grid:   302525 G-vectors     FFT dimensions: (  36,  36, 540)

     Estimated max dynamical RAM per process >     171.88 MB

     Estimated total dynamical RAM >       4.03 GB

     Initial potential from superposition of free atoms

     starting charge      91.9979, renormalised to      92.0000

     negative rho (up, down):  1.860E-04 0.000E+00


     %%%%%%%%%%%%%%%%%%%%%%%%%%%%%%%%%%%%%%%%%%%%%%%%%%%%%%%%%%%%%%%%%%%%%%%%
     %                                                                      %
     % You are using vdW-DF, which was implemented by the Thonhauser group. %
     % Please cite the following two papers that made this development      %
     % possible and the two reviews that describe the various versions:     %
     %                                                                      %
     %   T. Thonhauser et al., PRL 115, 136402 (2015).                      %
     %   T. Thonhauser et al., PRB 76, 125112 (2007).                       %
     %   K. Berland et al., Rep. Prog. Phys. 78, 066501 (2015).             %
     %   D.C. Langreth et al., J. Phys.: Condens. Matter 21, 084203 (2009). %
     %                                                                      %
     % If you are calculating stress with vdW-DF, please also cite:         %
     %                                                                      %
     %   R. Sabatini et al., J. Phys.: Condens. Matter 24, 424209 (2012).   %
     %                                                                      %
     %%%%%%%%%%%%%%%%%%%%%%%%%%%%%%%%%%%%%%%%%%%%%%%%%%%%%%%%%%%%%%%%%%%%%%%%

     %%%%%%%%%%%%%%%%%%%%%%%%%%%%%%%%%%%%%%%%%%%%%%%%%%%%%%%%%%%%%%%%%%%%%%%%
     %                                                                      %
     %  vdW-DF NEWS:                                                        %
     %                                                                      %
     %  * vdW-DF3 is now available. DOI: 10.1021/acs.jctc.0c00471           %
     %    use with input_dft = 'vdW-DF3-opt1' or 'vdW-DF3-opt2'             %
     %                                                                      %
     %  * Unscreened and range-separated hybrid vdW-DF-cx functionals       %
     %    DOI: 10.1063/1.4986522 and 10.1088/1361-648X/ac2ad2               %
     %    use with input_dft = 'vdW-DF-cx0'    and 'vdW-DF-ahcx'            %
     %  * Unscreened and range-separated hybrid vdW-DF2-b86r functionals    %
     %    DOI: 10.1063/1.4986522 and DOI: 10.1103/PhysRevX.12.041003        %
     %    use with input_dft = 'vdW-DF2-br0' and 'vdW-DF2-ahbr'             %
     %                                                                      %
     %%%%%%%%%%%%%%%%%%%%%%%%%%%%%%%%%%%%%%%%%%%%%%%%%%%%%%%%%%%%%%%%%%%%%%%%


     Starting wfcs are   56 randomized atomic wfcs
     Checking if some PAW data can be deallocated... 

     total cpu time spent up to now is       11.9 secs

     per-process dynamical memory:    79.7 Mb

     Self-consistent Calculation

     iteration #  1     ecut=    80.00 Ry     beta= 0.30
     Davidson diagonalization with overlap
     ethr =  1.00E-02,  avg # of iterations =  4.2

     Threshold (ethr) on eigenvalues was too large:
     Diagonalizing with lowered threshold

     Davidson diagonalization with overlap
     ethr =  4.44E-04,  avg # of iterations =  2.0

     negative rho (up, down):  6.418E-05 0.000E+00

     total cpu time spent up to now is       49.9 secs

     total energy              =   -2326.96719270 Ry
     estimated scf accuracy    <       0.45555866 Ry

     iteration #  2     ecut=    80.00 Ry     beta= 0.30
     Davidson diagonalization with overlap
     ethr =  4.95E-04,  avg # of iterations =  1.0

     negative rho (up, down):  2.944E-05 0.000E+00

     total cpu time spent up to now is       65.5 secs

     total energy              =   -2326.92058577 Ry
     estimated scf accuracy    <       0.23908914 Ry

     iteration #  3     ecut=    80.00 Ry     beta= 0.30
     Davidson diagonalization with overlap
     ethr =  2.60E-04,  avg # of iterations =  3.6

     negative rho (up, down):  1.533E-05 0.000E+00

     total cpu time spent up to now is       84.4 secs

     total energy              =   -2326.92765986 Ry
     estimated scf accuracy    <       0.02976526 Ry

     iteration #  4     ecut=    80.00 Ry     beta= 0.30
     Davidson diagonalization with overlap
     ethr =  3.24E-05,  avg # of iterations = 10.5

     negative rho (up, down):  8.305E-06 0.000E+00

     total cpu time spent up to now is      106.4 secs

     total energy              =   -2326.92801820 Ry
     estimated scf accuracy    <       0.00875423 Ry

     iteration #  5     ecut=    80.00 Ry     beta= 0.30
     Davidson diagonalization with overlap
     ethr =  9.52E-06,  avg # of iterations =  4.6

     negative rho (up, down):  1.294E-06 0.000E+00

     total cpu time spent up to now is      126.7 secs

     total energy              =   -2326.92768085 Ry
     estimated scf accuracy    <       0.00342143 Ry

     iteration #  6     ecut=    80.00 Ry     beta= 0.30
     Davidson diagonalization with overlap
     ethr =  3.72E-06,  avg # of iterations =  6.8

     negative rho (up, down):  6.905E-07 0.000E+00

     total cpu time spent up to now is      148.1 secs

     total energy              =   -2326.92775373 Ry
     estimated scf accuracy    <       0.00171160 Ry

     iteration #  7     ecut=    80.00 Ry     beta= 0.30
     Davidson diagonalization with overlap
     ethr =  1.86E-06,  avg # of iterations =  3.0

     negative rho (up, down):  2.113E-05 0.000E+00

     total cpu time spent up to now is      166.0 secs

     total energy              =   -2326.92754821 Ry
     estimated scf accuracy    <       0.00165059 Ry

     iteration #  8     ecut=    80.00 Ry     beta= 0.30
     Davidson diagonalization with overlap
     ethr =  1.79E-06,  avg # of iterations =  6.4

     negative rho (up, down):  4.676E-04 0.000E+00

     total cpu time spent up to now is      185.4 secs

     total energy              =   -2326.92745200 Ry
     estimated scf accuracy    <       0.00123631 Ry

     iteration #  9     ecut=    80.00 Ry     beta= 0.30
     Davidson diagonalization with overlap
     ethr =  1.34E-06,  avg # of iterations =  1.7

     negative rho (up, down):  5.131E-03 0.000E+00

     total cpu time spent up to now is      202.6 secs

     total energy              =   -2326.92732123 Ry
     estimated scf accuracy    <       0.00081388 Ry

     iteration # 10     ecut=    80.00 Ry     beta= 0.30
     Davidson diagonalization with overlap
     ethr =  8.85E-07,  avg # of iterations =  8.0

     negative rho (up, down):  4.885E-03 0.000E+00

     total cpu time spent up to now is      222.9 secs

     total energy              =   -2326.92735118 Ry
     estimated scf accuracy    <       0.00039477 Ry

     iteration # 11     ecut=    80.00 Ry     beta= 0.30
     Davidson diagonalization with overlap
     ethr =  4.29E-07,  avg # of iterations =  2.6

     negative rho (up, down):  3.411E-03 0.000E+00

     total cpu time spent up to now is      240.0 secs

     total energy              =   -2326.92733982 Ry
     estimated scf accuracy    <       0.00030020 Ry

     iteration # 12     ecut=    80.00 Ry     beta= 0.30
     Davidson diagonalization with overlap
     ethr =  3.26E-07,  avg # of iterations =  4.4

     negative rho (up, down):  3.798E-03 0.000E+00

     total cpu time spent up to now is      257.5 secs

     total energy              =   -2326.92730550 Ry
     estimated scf accuracy    <       0.00023239 Ry

     iteration # 13     ecut=    80.00 Ry     beta= 0.30
     Davidson diagonalization with overlap
     ethr =  2.53E-07,  avg # of iterations =  2.9

     negative rho (up, down):  5.450E-03 0.000E+00

     total cpu time spent up to now is      274.7 secs

     total energy              =   -2326.92719714 Ry
     estimated scf accuracy    <       0.00014651 Ry

     iteration # 14     ecut=    80.00 Ry     beta= 0.30
     Davidson diagonalization with overlap
     ethr =  1.59E-07,  avg # of iterations =  5.5

     negative rho (up, down):  5.514E-03 0.000E+00

     total cpu time spent up to now is      292.5 secs

     total energy              =   -2326.92723214 Ry
     estimated scf accuracy    <       0.00008346 Ry

     iteration # 15     ecut=    80.00 Ry     beta= 0.30
     Davidson diagonalization with overlap
     ethr =  9.07E-08,  avg # of iterations =  1.8

     negative rho (up, down):  3.772E-03 0.000E+00

     total cpu time spent up to now is      309.2 secs

     total energy              =   -2326.92728825 Ry
     estimated scf accuracy    <       0.00005738 Ry

     iteration # 16     ecut=    80.00 Ry     beta= 0.30
     Davidson diagonalization with overlap
     ethr =  6.24E-08,  avg # of iterations =  7.4

     negative rho (up, down):  2.632E-03 0.000E+00

     total cpu time spent up to now is      329.2 secs

     total energy              =   -2326.92729404 Ry
     estimated scf accuracy    <       0.00002469 Ry

     iteration # 17     ecut=    80.00 Ry     beta= 0.30
     Davidson diagonalization with overlap
     ethr =  2.68E-08,  avg # of iterations =  3.7

     negative rho (up, down):  2.005E-03 0.000E+00

     total cpu time spent up to now is      346.8 secs

     total energy              =   -2326.92730608 Ry
     estimated scf accuracy    <       0.00001464 Ry

     iteration # 18     ecut=    80.00 Ry     beta= 0.30
     Davidson diagonalization with overlap
     ethr =  1.59E-08,  avg # of iterations =  1.5

     negative rho (up, down):  1.019E-03 0.000E+00

     total cpu time spent up to now is      363.5 secs

     total energy              =   -2326.92732270 Ry
     estimated scf accuracy    <       0.00000748 Ry

     iteration # 19     ecut=    80.00 Ry     beta= 0.30
     Davidson diagonalization with overlap
     ethr =  8.13E-09,  avg # of iterations =  4.2

     negative rho (up, down):  5.714E-04 0.000E+00

     total cpu time spent up to now is      382.8 secs

     total energy              =   -2326.92732528 Ry
     estimated scf accuracy    <       0.00000270 Ry

     iteration # 20     ecut=    80.00 Ry     beta= 0.30
     Davidson diagonalization with overlap
     ethr =  2.93E-09,  avg # of iterations =  3.5

     negative rho (up, down):  2.408E-04 0.000E+00

     total cpu time spent up to now is      399.9 secs

     total energy              =   -2326.92732375 Ry
     estimated scf accuracy    <       0.00000177 Ry

     iteration # 21     ecut=    80.00 Ry     beta= 0.30
     Davidson diagonalization with overlap
     ethr =  1.92E-09,  avg # of iterations =  4.6

     negative rho (up, down):  2.230E-04 0.000E+00

     total cpu time spent up to now is      420.0 secs

     total energy              =   -2326.92732464 Ry
     estimated scf accuracy    <       0.00000027 Ry

     iteration # 22     ecut=    80.00 Ry     beta= 0.30
     Davidson diagonalization with overlap
     ethr =  2.92E-10,  avg # of iterations =  1.8

     negative rho (up, down):  2.342E-04 0.000E+00

     total cpu time spent up to now is      437.4 secs

     total energy              =   -2326.92732508 Ry
     estimated scf accuracy    <       0.00000015 Ry

     iteration # 23     ecut=    80.00 Ry     beta= 0.30
     Davidson diagonalization with overlap
     ethr =  1.64E-10,  avg # of iterations =  2.2

     negative rho (up, down):  2.477E-04 0.000E+00

     total cpu time spent up to now is      456.4 secs

     total energy              =   -2326.92732556 Ry
     estimated scf accuracy    <       0.00000003 Ry

     iteration # 24     ecut=    80.00 Ry     beta= 0.30
     Davidson diagonalization with overlap
     ethr =  3.76E-11,  avg # of iterations =  2.8

     negative rho (up, down):  2.444E-04 0.000E+00

     total cpu time spent up to now is      475.2 secs

     total energy              =   -2326.92732546 Ry
     estimated scf accuracy    <       0.00000001 Ry

     iteration # 25     ecut=    80.00 Ry     beta= 0.30
     Davidson diagonalization with overlap
     ethr =  1.29E-11,  avg # of iterations =  1.5

     negative rho (up, down):  2.194E-04 0.000E+00

     total cpu time spent up to now is      493.1 secs

     End of self-consistent calculation

          k = 0.0000 0.0000 0.0000 ( 37787 PWs)   bands (ev):

   -61.8994 -61.8984 -48.2970 -48.2970 -48.2951 -48.2951 -48.2945 -48.2945
   -48.2928 -48.2928 -48.2519 -48.2519 -48.2501 -48.2501 -48.2489 -48.2489
   -48.2473 -48.2473 -48.2334 -48.2316 -48.2302 -48.2287 -36.0179 -36.0168
   -35.9026 -35.9025 -35.9010 -35.9010 -15.2976 -15.2917 -14.4807 -14.4734
    -6.4680  -6.4124  -3.4476  -3.3638  -3.3638  -3.3574  -3.3574  -3.2414
    -1.6598  -1.5191  -1.0676  -1.0676  -1.0645  -1.0645   0.2274   0.2274
     0.2308   0.2308   2.9456   2.9456   2.9490   2.9490   3.3580

          k = 0.0000 0.0722 0.0000 ( 37755 PWs)   bands (ev):

   -61.8985 -61.8974 -48.2970 -48.2968 -48.2951 -48.2949 -48.2945 -48.2943
   -48.2928 -48.2926 -48.2520 -48.2520 -48.2502 -48.2501 -48.2490 -48.2489
   -48.2474 -48.2473 -48.2333 -48.2315 -48.2301 -48.2286 -36.0156 -36.0145
   -35.9132 -35.9116 -35.9050 -35.9034 -15.2408 -15.2349 -14.4512 -14.4440
    -6.3902  -6.3346  -3.8783  -3.7989  -3.3318  -3.3254  -2.9969  -2.8754
    -1.6861  -1.5724  -1.2619  -1.2467  -1.2144  -1.2111   0.1090   0.1334
     0.3402   0.3434   2.6165   2.6391   2.8966   2.9006   3.4794

          k = 0.0000 0.1443 0.0000 ( 37697 PWs)   bands (ev):

   -61.8957 -61.8947 -48.2970 -48.2963 -48.2951 -48.2945 -48.2944 -48.2938
   -48.2928 -48.2921 -48.2522 -48.2520 -48.2504 -48.2502 -48.2491 -48.2490
   -48.2475 -48.2474 -48.2331 -48.2313 -48.2298 -48.2283 -36.0093 -36.0081
   -35.9433 -35.9417 -35.9119 -35.9104 -15.0745 -15.0686 -14.3648 -14.3579
    -6.1650  -6.1094  -4.3523  -4.2915  -3.2564  -3.2501  -2.7715  -2.6666
    -2.0941  -2.0629  -1.5018  -1.5016  -1.4981  -1.4118  -0.0286   0.0328
     0.5303   0.5334   1.9966   2.0714   2.7961   2.8013   3.7568

          k = 0.0000 0.2165 0.0000 ( 37653 PWs)   bands (ev):

   -61.8916 -61.8906 -48.2970 -48.2955 -48.2950 -48.2945 -48.2936 -48.2930
   -48.2927 -48.2913 -48.2524 -48.2521 -48.2506 -48.2503 -48.2494 -48.2491
   -48.2478 -48.2475 -48.2327 -48.2309 -48.2294 -48.2279 -36.0000 -35.9989
   -35.9878 -35.9862 -35.9223 -35.9207 -14.8114 -14.8058 -14.2281 -14.2217
    -5.8238  -5.7694  -4.7733  -4.7269  -3.2639  -3.2542  -3.2047  -3.1985
    -2.4869  -2.3914  -1.7254  -1.7213  -1.5923  -1.5254  -0.0724   0.0107
     0.6362   0.6395   1.5986   1.7471   2.7298   2.7362   4.1252

          k = 0.0000 0.2887 0.0000 ( 37721 PWs)   bands (ev):

   -61.8868 -61.8857 -48.2969 -48.2950 -48.2946 -48.2944 -48.2927 -48.2927
   -48.2921 -48.2904 -48.2528 -48.2522 -48.2509 -48.2504 -48.2496 -48.2492
   -48.2480 -48.2476 -48.2322 -48.2304 -48.2290 -48.2275 -36.0408 -36.0392
   -35.9881 -35.9870 -35.9345 -35.9329 -14.4781 -14.4727 -14.0498 -14.0440
    -5.5074  -5.4627  -5.0099  -4.9687  -4.2829  -4.2782  -3.2590  -3.2531
    -2.6589  -2.5883  -1.8310  -1.7936  -1.7688  -1.7644   0.0008   0.0954
     0.6408   0.6442   1.6706   1.8875   2.7303   2.7381   4.5737

          k = 0.0000 0.3608 0.0000 ( 37749 PWs)   bands (ev):

   -61.8819 -61.8809 -48.2969 -48.2950 -48.2944 -48.2937 -48.2927 -48.2918
   -48.2912 -48.2895 -48.2531 -48.2524 -48.2513 -48.2505 -48.2499 -48.2493
   -48.2483 -48.2477 -48.2318 -48.2300 -48.2285 -48.2270 -36.0928 -36.0911
   -35.9768 -35.9757 -35.9466 -35.9451 -14.1295 -14.1246 -13.8298 -13.8247
    -5.6111  -5.5900  -5.2424  -5.2341  -4.7471  -4.7045  -3.4075  -3.4018
    -3.0047  -2.9605  -2.0925  -2.0630  -1.6635  -1.6588   0.2632   0.3499
     0.6177   0.6207   2.0694   2.3207   2.7661   2.7754   5.0493

          k = 0.0000 0.4330 0.0000 ( 37785 PWs)   bands (ev):

   -61.8778 -61.8767 -48.2969 -48.2950 -48.2944 -48.2929 -48.2927 -48.2910
   -48.2904 -48.2887 -48.2534 -48.2524 -48.2516 -48.2506 -48.2501 -48.2494
   -48.2485 -48.2478 -48.2314 -48.2296 -48.2281 -48.2266 -36.1365 -36.1348
   -35.9672 -35.9661 -35.9569 -35.9554 -13.8653 -13.8608 -13.5505 -13.5461
    -6.2027  -6.1977  -5.5894  -5.5679  -4.5468  -4.5247  -3.5666  -3.5610
    -3.2584  -3.2153  -2.2620  -2.2400  -1.5297  -1.5248   0.6323   0.6348
     0.6394   0.7040   2.5858   2.8019   2.8127   2.8240   5.0858

          k = 0.0000 0.5052 0.0000 ( 37822 PWs)   bands (ev):

   -61.8750 -61.8740 -48.2969 -48.2950 -48.2943 -48.2926 -48.2924 -48.2905
   -48.2899 -48.2882 -48.2536 -48.2525 -48.2518 -48.2507 -48.2502 -48.2494
   -48.2486 -48.2478 -48.2312 -48.2294 -48.2279 -48.2264 -36.1656 -36.1639
   -35.9638 -35.9622 -35.9607 -35.9597 -13.7199 -13.7156 -13.2882 -13.2846
    -6.7604  -6.7553  -5.6073  -5.5925  -4.7091  -4.6959  -3.6787  -3.6731
    -3.1369  -3.0964  -2.3860  -2.3721  -1.4426  -1.4374   0.6814   0.6839
     0.9950   1.0325   2.8241   2.8358   3.0632   3.2269   4.5874

          k = 0.0000-0.5774 0.0000 ( 37832 PWs)   bands (ev):

   -61.8741 -61.8730 -48.2970 -48.2950 -48.2943 -48.2926 -48.2923 -48.2903
   -48.2897 -48.2880 -48.2536 -48.2525 -48.2518 -48.2507 -48.2503 -48.2494
   -48.2487 -48.2478 -48.2311 -48.2293 -48.2278 -48.2263 -36.1757 -36.1740
   -35.9662 -35.9646 -35.9584 -35.9574 -13.6723 -13.6681 -13.1814 -13.1782
    -6.9656  -6.9606  -5.5739  -5.5670  -4.8522  -4.8382  -3.7183  -3.7128
    -3.0036  -2.9719  -2.4531  -2.4419  -1.4150  -1.4096   0.7089   0.7116
     1.1521   1.1698   2.8312   2.8433   3.3183   3.4066   4.2562

          k = 0.0625 0.1083 0.0000 ( 37709 PWs)   bands (ev):

   -61.8966 -61.8956 -48.2970 -48.2965 -48.2951 -48.2946 -48.2945 -48.2940
   -48.2928 -48.2923 -48.2521 -48.2520 -48.2503 -48.2502 -48.2491 -48.2490
   -48.2475 -48.2474 -48.2332 -48.2314 -48.2299 -48.2284 -36.0113 -36.0102
   -35.9332 -35.9317 -35.9100 -35.9084 -15.1292 -15.1234 -14.3932 -14.3862
    -6.2383  -6.1827  -4.2263  -4.1606  -3.2852  -3.2789  -2.7983  -2.6797
    -1.8952  -1.8618  -1.5081  -1.4952  -1.4156  -1.3427   0.0369   0.0886
     0.4304   0.4330   2.2338   2.2900   2.7542   2.7558   3.6750

          k = 0.0625 0.1804 0.0000 ( 37703 PWs)   bands (ev):

   -61.8932 -61.8921 -48.2969 -48.2958 -48.2950 -48.2944 -48.2939 -48.2933
   -48.2927 -48.2916 -48.2523 -48.2521 -48.2505 -48.2503 -48.2493 -48.2491
   -48.2477 -48.2475 -48.2328 -48.2310 -48.2296 -48.2281 -36.0034 -36.0023
   -35.9698 -35.9683 -35.9195 -35.9179 -14.9141 -14.9083 -14.2818 -14.2752
    -5.9502  -5.8949  -4.6314  -4.5803  -3.2794  -3.2734  -2.8409  -2.7895
    -2.4752  -2.4342  -1.7715  -1.7407  -1.4532  -1.3736   0.0262   0.0952
     0.4271   0.4372   1.8894   1.9949   2.5786   2.5835   3.9891

          k = 0.0625 0.2526 0.0000 ( 37702 PWs)   bands (ev):

   -61.8887 -61.8877 -48.2969 -48.2950 -48.2950 -48.2944 -48.2931 -48.2927
   -48.2925 -48.2908 -48.2526 -48.2522 -48.2508 -48.2504 -48.2495 -48.2492
   -48.2479 -48.2476 -48.2324 -48.2306 -48.2292 -48.2276 -36.0176 -36.0160
   -35.9927 -35.9916 -35.9318 -35.9303 -14.6138 -14.6083 -14.1254 -14.1194
    -5.5813  -5.5291  -4.9694  -4.9287  -3.8383  -3.8341  -3.2280  -3.2180
    -2.6287  -2.5760  -1.9787  -1.9518  -1.4717  -1.4209  -0.0414   0.0305
     0.4938   0.5293   1.7598   1.9067   2.5428   2.5646   4.3960

          k = 0.0625 0.3248 0.0000 ( 37734 PWs)   bands (ev):

   -61.8839 -61.8828 -48.2969 -48.2949 -48.2943 -48.2941 -48.2926 -48.2922
   -48.2916 -48.2899 -48.2529 -48.2523 -48.2511 -48.2505 -48.2498 -48.2493
   -48.2482 -48.2477 -48.2320 -48.2302 -48.2287 -48.2272 -36.0685 -36.0669
   -35.9815 -35.9804 -35.9452 -35.9437 -14.2653 -14.2601 -13.9314 -13.9260
    -5.4635  -5.4311  -4.9432  -4.9089  -4.7870  -4.7733  -3.4669  -3.4576
    -2.7465  -2.7074  -2.2853  -2.2747  -1.4504  -1.4215   0.0074   0.0807
     0.6440   0.6742   1.8818   2.0478   2.6197   2.6791   4.8747

          k = 0.0625 0.3969 0.0000 ( 37770 PWs)   bands (ev):

   -61.8794 -61.8783 -48.2968 -48.2949 -48.2943 -48.2933 -48.2926 -48.2914
   -48.2908 -48.2891 -48.2532 -48.2524 -48.2514 -48.2506 -48.2500 -48.2494
   -48.2484 -48.2478 -48.2316 -48.2298 -48.2283 -48.2268 -36.1152 -36.1136
   -35.9710 -35.9700 -35.9575 -35.9559 -13.9488 -13.9441 -13.6867 -13.6820
    -5.8189  -5.8132  -5.4928  -5.4721  -4.5775  -4.5429  -3.7131  -3.7017
    -3.0034  -2.9775  -2.5042  -2.4925  -1.3750  -1.3596   0.2149   0.2674
     0.8021   0.8287   2.1869   2.3040   2.7604   2.8852   5.2865

          k = 0.0625 0.4691 0.0000 ( 37798 PWs)   bands (ev):

   -61.8759 -61.8749 -48.2968 -48.2949 -48.2942 -48.2927 -48.2925 -48.2908
   -48.2902 -48.2885 -48.2535 -48.2525 -48.2517 -48.2507 -48.2502 -48.2494
   -48.2486 -48.2478 -48.2312 -48.2294 -48.2280 -48.2265 -36.1508 -36.1491
   -35.9673 -35.9658 -35.9626 -35.9615 -13.7510 -13.7467 -13.4007 -13.3967
    -6.4735  -6.4685  -5.5979  -5.5799  -4.5613  -4.5470  -3.8070  -3.7955
    -3.1205  -3.0905  -2.6085  -2.5990  -1.3305  -1.3235   0.4711   0.4972
     0.9841   1.0097   2.4551   2.4922   2.9901   3.1486   5.0422

          k = 0.0625 0.5413 0.0000 ( 37791 PWs)   bands (ev):

   -61.8741 -61.8730 -48.2968 -48.2949 -48.2942 -48.2925 -48.2924 -48.2904
   -48.2899 -48.2882 -48.2536 -48.2526 -48.2518 -48.2507 -48.2503 -48.2495
   -48.2486 -48.2479 -48.2311 -48.2293 -48.2278 -48.2263 -36.1699 -36.1682
   -35.9722 -35.9706 -35.9585 -35.9574 -13.6576 -13.6535 -13.2052 -13.2019
    -6.8604  -6.8555  -5.5762  -5.5666  -4.7706  -4.7570  -3.8215  -3.8155
    -3.0064  -2.9785  -2.6790  -2.6732  -1.3299  -1.3261   0.6617   0.6692
     1.1169   1.1354   2.5690   2.5793   3.2535   3.3561   4.5431

          k = 0.1250 0.2165 0.0000 ( 37731 PWs)   bands (ev):

   -61.8894 -61.8883 -48.2968 -48.2952 -48.2949 -48.2943 -48.2933 -48.2927
   -48.2926 -48.2910 -48.2526 -48.2522 -48.2508 -48.2504 -48.2495 -48.2492
   -48.2479 -48.2476 -48.2325 -48.2307 -48.2292 -48.2277 -36.0077 -36.0061
   -35.9946 -35.9935 -35.9324 -35.9308 -14.6604 -14.6549 -14.1513 -14.1452
    -5.6132  -5.5588  -4.9373  -4.8962  -3.6965  -3.6917  -3.0332  -2.9907
    -2.8663  -2.8619  -1.9588  -1.9096  -1.3608  -1.2893   0.0333   0.0644
     0.2751   0.3524   2.0938   2.1799   2.1856   2.2471   4.3385

          k = 0.1250 0.2887 0.0000 ( 37723 PWs)   bands (ev):

   -61.8849 -61.8839 -48.2967 -48.2948 -48.2945 -48.2942 -48.2926 -48.2925
   -48.2920 -48.2903 -48.2529 -48.2523 -48.2510 -48.2505 -48.2497 -48.2493
   -48.2481 -48.2477 -48.2321 -48.2303 -48.2288 -48.2273 -36.0513 -36.0496
   -35.9842 -35.9831 -35.9484 -35.9468 -14.3378 -14.3326 -13.9836 -13.9781
    -5.2930  -5.2532  -5.1015  -5.0577  -4.4644  -4.4602  -3.4723  -3.4536
    -2.9579  -2.9504  -2.2145  -2.1873  -1.2273  -1.1721  -0.1923  -0.1347
     0.5712   0.6368   1.8549   1.8852   2.4003   2.5622   4.7829

          k = 0.1250 0.3608 0.0000 ( 37761 PWs)   bands (ev):

   -61.8804 -61.8794 -48.2966 -48.2947 -48.2941 -48.2937 -48.2923 -48.2918
   -48.2912 -48.2895 -48.2531 -48.2524 -48.2513 -48.2506 -48.2499 -48.2494
   -48.2483 -48.2478 -48.2317 -48.2299 -48.2284 -48.2269 -36.0942 -36.0925
   -35.9744 -35.9733 -35.9641 -35.9626 -13.9974 -13.9926 -13.7822 -13.7773
    -5.4833  -5.4638  -5.2660  -5.2591  -4.6896  -4.6450  -3.8569  -3.8439
    -3.0572  -3.0501  -2.6369  -2.6245  -1.0869  -1.0499  -0.1586  -0.0986
     0.8653   0.9059   1.7659   1.8094   2.6956   2.8783   5.2798

          k = 0.1250 0.4330 0.0000 ( 37768 PWs)   bands (ev):

   -61.8766 -61.8756 -48.2965 -48.2946 -48.2939 -48.2931 -48.2922 -48.2912
   -48.2906 -48.2889 -48.2534 -48.2525 -48.2516 -48.2507 -48.2501 -48.2495
   -48.2485 -48.2479 -48.2313 -48.2295 -48.2280 -48.2265 -36.1302 -36.1285
   -35.9795 -35.9779 -35.9641 -35.9631 -13.7471 -13.7427 -13.5187 -13.5145
    -6.0648  -6.0601  -5.5317  -5.5128  -4.4075  -4.3855  -4.0869  -4.0681
    -3.1680  -3.1627  -2.9858  -2.9725  -1.0461  -1.0251   0.0915   0.1383
     1.0664   1.0860   1.8759   1.9180   2.9780   3.1431   5.4791

          k = 0.1250 0.5052 0.0000 ( 37794 PWs)   bands (ev):

   -61.8741 -61.8730 -48.2964 -48.2945 -48.2938 -48.2927 -48.2921 -48.2908
   -48.2902 -48.2885 -48.2535 -48.2526 -48.2517 -48.2508 -48.2502 -48.2495
   -48.2486 -48.2479 -48.2311 -48.2293 -48.2278 -48.2263 -36.1541 -36.1524
   -35.9885 -35.9869 -35.9585 -35.9574 -13.6150 -13.6109 -13.2694 -13.2658
    -6.5682  -6.5633  -5.5615  -5.5494  -4.5748  -4.5624  -4.0358  -4.0228
    -3.2486  -3.2449  -3.0523  -3.0340  -1.0989  -1.0863   0.4397   0.4672
     1.1205   1.1308   2.0506   2.0776   3.1903   3.2950   5.1263

          k = 0.1250 0.5774 0.0000 ( 37780 PWs)   bands (ev):

   -61.8732 -61.8721 -48.2964 -48.2945 -48.2938 -48.2925 -48.2921 -48.2906
   -48.2901 -48.2884 -48.2536 -48.2527 -48.2518 -48.2508 -48.2503 -48.2495
   -48.2487 -48.2479 -48.2310 -48.2292 -48.2277 -48.2262 -36.1625 -36.1608
   -35.9918 -35.9902 -35.9564 -35.9554 -13.5712 -13.5672 -13.1699 -13.1667
    -6.7518  -6.7469  -5.5504  -5.5445  -4.6899  -4.6764  -4.0297  -4.0215
    -3.2773  -3.2745  -3.0057  -2.9898  -1.1372  -1.1261   0.6529   0.6588
     1.0706   1.0829   2.1468   2.1483   3.2705   3.3414   4.8965

          k = 0.1875 0.3248 0.0000 ( 37725 PWs)   bands (ev):

   -61.8808 -61.8797 -48.2964 -48.2945 -48.2940 -48.2939 -48.2922 -48.2920
   -48.2914 -48.2897 -48.2531 -48.2524 -48.2513 -48.2506 -48.2499 -48.2494
   -48.2483 -48.2478 -48.2317 -48.2299 -48.2284 -48.2269 -36.0846 -36.0830
   -35.9765 -35.9753 -35.9677 -35.9662 -14.0128 -14.0079 -13.8169 -13.8120
    -5.3542  -5.3290  -5.0959  -5.0917  -4.7790  -4.7331  -3.8620  -3.8455
    -3.3362  -3.3318  -2.5158  -2.5067  -0.9265  -0.8762  -0.3370  -0.2779
     0.8574   0.9100   1.5948   1.6086   2.6772   2.8744   5.2587

          k = 0.1875 0.3969 0.0000 ( 37753 PWs)   bands (ev):

   -61.8770 -61.8759 -48.2962 -48.2943 -48.2937 -48.2934 -48.2919 -48.2915
   -48.2910 -48.2893 -48.2533 -48.2526 -48.2515 -48.2507 -48.2501 -48.2495
   -48.2484 -48.2479 -48.2313 -48.2295 -48.2281 -48.2266 -36.1134 -36.1117
   -35.9917 -35.9901 -35.9650 -35.9639 -13.7096 -13.7052 -13.6191 -13.6147
    -5.6957  -5.6914  -5.4540  -5.4356  -4.3753  -4.3373  -4.2116  -4.1979
    -3.6621  -3.6578  -2.9110  -2.9088  -0.7113  -0.6777  -0.2646  -0.2144
     1.0901   1.1195   1.5041   1.5365   2.9795   3.1482   5.7065

          k = 0.1875 0.4691 0.0000 ( 37759 PWs)   bands (ev):

   -61.8741 -61.8730 -48.2959 -48.2940 -48.2934 -48.2931 -48.2917 -48.2912
   -48.2906 -48.2889 -48.2534 -48.2527 -48.2516 -48.2509 -48.2502 -48.2496
   -48.2486 -48.2480 -48.2311 -48.2293 -48.2278 -48.2263 -36.1343 -36.1326
   -36.0088 -36.0072 -35.9585 -35.9574 -13.5489 -13.5448 -13.3565 -13.3527
    -6.1801  -6.1756  -5.5180  -5.5060  -4.4336  -4.4217  -4.1301  -4.1078
    -3.8882  -3.8829  -3.1821  -3.1777  -0.7550  -0.7352   0.0856   0.1185
     1.1405   1.1511   1.6473   1.6930   3.1764   3.2727   5.6002

          k = 0.1875 0.5413 0.0000 ( 37793 PWs)   bands (ev):

   -61.8725 -61.8714 -48.2958 -48.2939 -48.2933 -48.2929 -48.2916 -48.2910
   -48.2905 -48.2888 -48.2535 -48.2528 -48.2517 -48.2510 -48.2503 -48.2496
   -48.2487 -48.2480 -48.2309 -48.2291 -48.2277 -48.2262 -36.1452 -36.1435
   -36.0185 -36.0168 -35.9549 -35.9539 -13.4711 -13.4672 -13.1867 -13.1834
    -6.4576  -6.4528  -5.5436  -5.5373  -4.5272  -4.5151  -4.1671  -4.1562
    -3.9626  -3.9579  -3.2046  -3.1974  -0.8404  -0.8253   0.4626   0.4761
     0.9951   1.0019   1.8654   1.8956   3.1947   3.2442   5.4497

          k = 0.2500 0.4330 0.0000 ( 37711 PWs)   bands (ev):

   -61.8741 -61.8730 -48.2957 -48.2938 -48.2934 -48.2930 -48.2916 -48.2913
   -48.2908 -48.2891 -48.2534 -48.2527 -48.2516 -48.2509 -48.2502 -48.2496
   -48.2486 -48.2480 -48.2311 -48.2293 -48.2278 -48.2263 -36.1239 -36.1222
   -36.0194 -36.0178 -35.9585 -35.9575 -13.4871 -13.4831 -13.4268 -13.4229
    -5.9595  -5.9551  -5.4860  -5.4748  -4.4168  -4.4021  -4.2505  -4.2471
    -4.0580  -4.0306  -3.2786  -3.2728  -0.3604  -0.3254  -0.3138  -0.2960
     1.1317   1.1494   1.5201   1.5708   3.1784   3.2696   5.8556

          k = 0.2500 0.5052 0.0000 ( 37776 PWs)   bands (ev):

   -61.8721 -61.8711 -48.2953 -48.2934 -48.2934 -48.2927 -48.2915 -48.2910
   -48.2909 -48.2892 -48.2534 -48.2528 -48.2516 -48.2510 -48.2503 -48.2497
   -48.2487 -48.2480 -48.2309 -48.2291 -48.2276 -48.2261 -36.1264 -36.1247
   -36.0425 -36.0408 -35.9541 -35.9530 -13.3772 -13.3734 -13.2396 -13.2361
    -6.1075  -6.1028  -5.5350  -5.5290  -4.6705  -4.6664  -4.3932  -4.3796
    -3.9771  -3.9639  -3.5154  -3.5114  -0.4465  -0.4276   0.0538   0.0653
     0.9594   0.9642   1.8047   1.8669   3.1428   3.1603   5.6808

          k = 0.2500 0.5774 0.0000 ( 37791 PWs)   bands (ev):

   -61.8714 -61.8704 -48.2951 -48.2935 -48.2932 -48.2925 -48.2916 -48.2909
   -48.2908 -48.2892 -48.2534 -48.2529 -48.2516 -48.2511 -48.2503 -48.2497
   -48.2487 -48.2481 -48.2308 -48.2291 -48.2276 -48.2261 -36.1258 -36.1242
   -36.0520 -36.0504 -35.9525 -35.9515 -13.3385 -13.3347 -13.1696 -13.1664
    -6.1504  -6.1456  -5.5644  -5.5597  -4.8234  -4.8195  -4.2138  -4.2046
    -4.1874  -4.1814  -3.5154  -3.5128  -0.4955  -0.4799   0.3139   0.3219
     0.7524   0.7576   2.0363   2.0721   3.0090   3.0201   5.6038

          k = 0.3125 0.5413 0.0000 ( 37789 PWs)   bands (ev):

   -61.8711 -61.8700 -48.2947 -48.2938 -48.2928 -48.2921 -48.2919 -48.2913
   -48.2904 -48.2896 -48.2534 -48.2530 -48.2516 -48.2512 -48.2504 -48.2497
   -48.2488 -48.2481 -48.2308 -48.2290 -48.2276 -48.2260 -36.1083 -36.1067
   -36.0745 -36.0729 -35.9517 -35.9506 -13.2591 -13.2554 -13.1969 -13.1937
    -5.8464  -5.8412  -5.5738  -5.5696  -5.2633  -5.2587  -4.2266  -4.2135
    -3.8883  -3.8832  -3.8786  -3.8712  -0.1602  -0.1408   0.0216   0.0337
     0.6544   0.6568   2.2319   2.2924   2.8105   2.8453   5.5669

     the Fermi energy is    -0.3017 ev

!    total energy              =   -2326.92732512 Ry
     total all-electron energy =    -35628.675154 Ry
     estimated scf accuracy    <          8.7E-09 Ry
     smearing contrib. (-TS)   =       0.00086849 Ry
     internal energy E=F+TS    =   -2326.92819361 Ry

     The total energy is F=E-TS. E is the sum of the following terms:
     one-electron contribution =  -25693.03799369 Ry
     hartree contribution      =   12834.73057664 Ry
     xc contribution           =    -152.42548093 Ry
     ewald contribution        =   11694.31907363 Ry
     one-center paw contrib.   =   -1010.51436926 Ry

     convergence has been achieved in  25 iterations

     Writing all to output data dir ./tmp/cleave_009/mose2_cleave_009.save/ :
     XML data file, charge density, pseudopotentials, collected wavefunctions

     init_run     :     11.41s CPU     11.77s WALL (       1 calls)
     electrons    :    471.28s CPU    481.28s WALL (       1 calls)

     Called by init_run:
     wfcinit      :      5.21s CPU      5.33s WALL (       1 calls)
     potinit      :      5.50s CPU      5.67s WALL (       1 calls)
     hinit0       :      0.05s CPU      0.06s WALL (       1 calls)

     Called by electrons:
     c_bands      :    391.67s CPU    395.61s WALL (      26 calls)
     sum_band     :     52.35s CPU     55.18s WALL (      26 calls)
     v_of_rho     :     15.37s CPU     16.39s WALL (      26 calls)
     newd         :      9.70s CPU     12.02s WALL (      26 calls)
     PAW_pot      :      1.59s CPU      1.65s WALL (      26 calls)
     mix_rho      :      6.27s CPU      6.31s WALL (      26 calls)
     vdW_kernel   :      5.05s CPU      5.18s WALL (       1 calls)

     Called by c_bands:
     init_us_2    :      3.30s CPU      3.32s WALL (    1590 calls)
     cegterg      :    382.87s CPU    386.65s WALL (     780 calls)

     Called by *egterg:
     cdiaghg      :     12.10s CPU     12.12s WALL (    3821 calls)
     h_psi        :    166.08s CPU    167.30s WALL (    3881 calls)
     s_psi        :     32.94s CPU     32.98s WALL (    3881 calls)
     g_psi        :      0.59s CPU      0.59s WALL (    3071 calls)

     Called by h_psi:
     h_psi:calbec :     49.68s CPU     50.31s WALL (    3881 calls)
     vloc_psi     :     75.58s CPU     76.13s WALL (    3881 calls)
                                        0.00s GPU  (    3881 calls)
     add_vuspsi   :     40.21s CPU     40.25s WALL (    3881 calls)

     General routines
     calbec       :     71.33s CPU     72.20s WALL (    4661 calls)
     fft          :      6.13s CPU      6.24s WALL (    1637 calls)
     ffts         :      2.23s CPU      2.24s WALL (    3004 calls)
     fftw         :     83.70s CPU     84.35s WALL (  232074 calls)
     interpolate  :      0.12s CPU      0.12s WALL (      26 calls)

     Parallel routines

     PWSCF        :   8m 3.34s CPU   8m13.94s WALL


   This run was terminated on:  10: 5:32  20Jun2026            

=------------------------------------------------------------------------------=
   JOB DONE.
=------------------------------------------------------------------------------=
Note: The following floating-point exceptions are signalling: IEEE_UNDERFLOW_FLAG IEEE_DENORMAL
Note: The following floating-point exceptions are signalling: IEEE_UNDERFLOW_FLAG IEEE_DENORMAL
Note: The following floating-point exceptions are signalling: IEEE_UNDERFLOW_FLAG IEEE_DENORMAL
Note: The following floating-point exceptions are signalling: IEEE_UNDERFLOW_FLAG IEEE_DENORMAL
Note: The following floating-point exceptions are signalling: IEEE_UNDERFLOW_FLAG IEEE_DENORMAL
Note: The following floating-point exceptions are signalling: IEEE_UNDERFLOW_FLAG IEEE_DENORMAL
Note: The following floating-point exceptions are signalling: IEEE_UNDERFLOW_FLAG IEEE_DENORMAL
Note: The following floating-point exceptions are signalling: IEEE_UNDERFLOW_FLAG IEEE_DENORMAL
Note: The following floating-point exceptions are signalling: IEEE_UNDERFLOW_FLAG IEEE_DENORMAL
Note: The following floating-point exceptions are signalling: IEEE_UNDERFLOW_FLAG IEEE_DENORMAL
Note: The following floating-point exceptions are signalling: IEEE_UNDERFLOW_FLAG IEEE_DENORMAL
Note: The following floating-point exceptions are signalling: IEEE_UNDERFLOW_FLAG IEEE_DENORMAL
Note: The following floating-point exceptions are signalling: IEEE_UNDERFLOW_FLAG IEEE_DENORMAL
Note: The following floating-point exceptions are signalling: IEEE_UNDERFLOW_FLAG IEEE_DENORMAL
Note: The following floating-point exceptions are signalling: IEEE_UNDERFLOW_FLAG IEEE_DENORMAL
Note: The following floating-point exceptions are signalling: IEEE_UNDERFLOW_FLAG IEEE_DENORMAL
Note: The following floating-point exceptions are signalling: IEEE_UNDERFLOW_FLAG IEEE_DENORMAL
Note: The following floating-point exceptions are signalling: IEEE_UNDERFLOW_FLAG IEEE_DENORMAL
Note: The following floating-point exceptions are signalling: IEEE_UNDERFLOW_FLAG IEEE_DENORMAL
Note: The following floating-point exceptions are signalling: IEEE_UNDERFLOW_FLAG IEEE_DENORMAL
Note: The following floating-point exceptions are signalling: IEEE_UNDERFLOW_FLAG IEEE_DENORMAL
Note: The following floating-point exceptions are signalling: IEEE_UNDERFLOW_FLAG IEEE_DENORMAL
Note: The following floating-point exceptions are signalling: IEEE_UNDERFLOW_FLAG IEEE_DENORMAL
Note: The following floating-point exceptions are signalling: IEEE_UNDERFLOW_FLAG IEEE_DENORMAL
