
     Program PWSCF v.7.5 starts on 20Jun2026 at 10: 5:32 

     This program is part of the open-source Quantum ESPRESSO suite
     for quantum simulation of materials; please cite
         "P. Giannozzi et al., J. Phys.:Condens. Matter 21 395502 (2009);
         "P. Giannozzi et al., J. Phys.:Condens. Matter 29 465901 (2017);
         "P. Giannozzi et al., J. Chem. Phys. 152 154105 (2020);
          URL http://www.quantum-espresso.org", 
     in publications or presentations arising from this work. More details at
     http://www.quantum-espresso.org/quote

     Parallel version (MPI), running on    24 processors

     MPI processes distributed on     1 nodes
     4728 MiB available memory on the printing compute node when the environment starts

     Waiting for input...
     Reading input from standard input

     Current dimensions of program PWSCF are:
     Max number of different atomic species (ntypx) = 10
     Max number of k-points (npk) =  40000
     Max angular momentum in pseudopotentials (lmaxx) =  4
     file Mo.pbe-spn-kjpaw_psl.1.0.0.UPF: wavefunction(s)  4S 4D renormalized
     file Se.pbe-dn-kjpaw_psl.1.0.0.UPF: wavefunction(s)  4S 4P 3D renormalized

     IMPORTANT: XC functional enforced from input :
     Exchange-correlation= VDW-DF2-B86R
                           (   1   4  26   0   2   0   0)
     Any further DFT definition will be discarded
     Please, verify this is what you really want


     R & G space division:  proc/nbgrp/npool/nimage =      24
     Subspace diagonalization in iterative solution of the eigenvalue problem:
     a serial algorithm will be used


     Parallelization info
     --------------------
     sticks:   dense  smooth     PW     G-vecs:    dense   smooth      PW
     Min          69      35     10                35537    12585    1924
     Max          70      36     11                35620    12648    1981
     Sum        1675     847    241               853823   302525   46513

     Using Slab Decomposition



     bravais-lattice index     =            4
     lattice parameter (alat)  =       6.1794  a.u.
     unit-cell volume          =    3124.5879 (a.u.)^3
     number of atoms/cell      =            6
     number of atomic types    =            2
     number of electrons       =        92.00
     number of Kohn-Sham states=           55
     kinetic-energy cutoff     =      80.0000  Ry
     charge density cutoff     =     640.0000  Ry
     scf convergence threshold =      1.0E-08
     mixing beta               =       0.3000
     number of iterations used =            8  local-TF  mixing
     Exchange-correlation= VDW-DF2-B86R
                           (   1   4  26   0   2   0   0)

     celldm(1)=   6.179404  celldm(2)=   0.000000  celldm(3)=  15.290520
     celldm(4)=   0.000000  celldm(5)=   0.000000  celldm(6)=   0.000000

     crystal axes: (cart. coord. in units of alat)
               a(1) = (   1.000000   0.000000   0.000000 )  
               a(2) = (  -0.500000   0.866025   0.000000 )  
               a(3) = (   0.000000   0.000000  15.290520 )  

     reciprocal axes: (cart. coord. in units 2 pi/alat)
               b(1) = (  1.000000  0.577350 -0.000000 )  
               b(2) = (  0.000000  1.154701  0.000000 )  
               b(3) = (  0.000000 -0.000000  0.065400 )  


     PseudoPot. # 1 for Mo read from file:
     ./pseudo/Mo.pbe-spn-kjpaw_psl.1.0.0.UPF
     MD5 check sum: 4396e0c640fcce5c25f020efccf1ab12
     Pseudo is Projector augmented-wave + core cor, Zval = 14.0
     Generated using &quot;atomic&quot; code by A. Dal Corso  v.6.3
     Shape of augmentation charge: PSQ
     Using radial grid of 1229 points,  6 beta functions with: 
                l(1) =   0
                l(2) =   0
                l(3) =   1
                l(4) =   1
                l(5) =   2
                l(6) =   2
     Q(r) pseudized with 0 coefficients 


     PseudoPot. # 2 for Se read from file:
     ./pseudo/Se.pbe-dn-kjpaw_psl.1.0.0.UPF
     MD5 check sum: ac240dd2bae32a30e0bf3a38df9c8785
     Pseudo is Projector augmented-wave + core cor, Zval = 16.0
     Generated using &quot;atomic&quot; code by A. Dal Corso  v.6.3
     Shape of augmentation charge: PSQ
     Using radial grid of 1211 points,  6 beta functions with: 
                l(1) =   0
                l(2) =   0
                l(3) =   1
                l(4) =   1
                l(5) =   2
                l(6) =   2
     Q(r) pseudized with 0 coefficients 


     atomic species   valence    mass     pseudopotential
     Mo               14.00    95.96000     Mo( 1.00)
     Se               16.00    78.96000     Se( 1.00)

      6 Sym. Ops. (no inversion) found



   Cartesian axes

     site n.     atom                  positions (alat units)
         1        Se     tau(   1) = (  -0.0000005   0.5773506   6.1238532  )
         2        Mo     tau(   2) = (   0.0000000   0.0000000   6.6502752  )
         3        Se     tau(   3) = (   0.5000005   0.2886748   7.1775994  )
         4        Se     tau(   4) = (  -0.0000005   0.5773506   8.7239602  )
         5        Mo     tau(   5) = (   0.5000005   0.2886748   9.2511468  )
         6        Se     tau(   6) = (   0.0000000   0.0000000   9.7782875  )

     number of k points=    30  Methfessel-Paxton smearing, width (Ry)=  0.0200
                       cart. coord. in units 2pi/alat
        k(    1) = (   0.0000000   0.0000000   0.0000000), wk =   0.0078125
        k(    2) = (   0.0000000   0.0721688   0.0000000), wk =   0.0468750
        k(    3) = (   0.0000000   0.1443376   0.0000000), wk =   0.0468750
        k(    4) = (   0.0000000   0.2165064   0.0000000), wk =   0.0468750
        k(    5) = (   0.0000000   0.2886751   0.0000000), wk =   0.0468750
        k(    6) = (   0.0000000   0.3608439   0.0000000), wk =   0.0468750
        k(    7) = (   0.0000000   0.4330127   0.0000000), wk =   0.0468750
        k(    8) = (   0.0000000   0.5051815   0.0000000), wk =   0.0468750
        k(    9) = (   0.0000000  -0.5773503   0.0000000), wk =   0.0234375
        k(   10) = (   0.0625000   0.1082532   0.0000000), wk =   0.0468750
        k(   11) = (   0.0625000   0.1804220   0.0000000), wk =   0.0937500
        k(   12) = (   0.0625000   0.2525907   0.0000000), wk =   0.0937500
        k(   13) = (   0.0625000   0.3247595   0.0000000), wk =   0.0937500
        k(   14) = (   0.0625000   0.3969283   0.0000000), wk =   0.0937500
        k(   15) = (   0.0625000   0.4690971   0.0000000), wk =   0.0937500
        k(   16) = (   0.0625000   0.5412659   0.0000000), wk =   0.0937500
        k(   17) = (   0.1250000   0.2165064   0.0000000), wk =   0.0468750
        k(   18) = (   0.1250000   0.2886751   0.0000000), wk =   0.0937500
        k(   19) = (   0.1250000   0.3608439   0.0000000), wk =   0.0937500
        k(   20) = (   0.1250000   0.4330127   0.0000000), wk =   0.0937500
        k(   21) = (   0.1250000   0.5051815   0.0000000), wk =   0.0937500
        k(   22) = (   0.1250000   0.5773503   0.0000000), wk =   0.0468750
        k(   23) = (   0.1875000   0.3247595   0.0000000), wk =   0.0468750
        k(   24) = (   0.1875000   0.3969283   0.0000000), wk =   0.0937500
        k(   25) = (   0.1875000   0.4690971   0.0000000), wk =   0.0937500
        k(   26) = (   0.1875000   0.5412659   0.0000000), wk =   0.0937500
        k(   27) = (   0.2500000   0.4330127   0.0000000), wk =   0.0468750
        k(   28) = (   0.2500000   0.5051815   0.0000000), wk =   0.0937500
        k(   29) = (   0.2500000   0.5773503   0.0000000), wk =   0.0468750
        k(   30) = (   0.3125000   0.5412659   0.0000000), wk =   0.0468750

     Dense  grid:   853823 G-vectors     FFT dimensions: (  50,  50, 768)

     Smooth grid:   302525 G-vectors     FFT dimensions: (  36,  36, 540)

     Estimated max dynamical RAM per process >     171.88 MB

     Estimated total dynamical RAM >       4.03 GB

     Initial potential from superposition of free atoms

     starting charge      91.9979, renormalised to      92.0000

     negative rho (up, down):  1.831E-04 0.000E+00


     %%%%%%%%%%%%%%%%%%%%%%%%%%%%%%%%%%%%%%%%%%%%%%%%%%%%%%%%%%%%%%%%%%%%%%%%
     %                                                                      %
     % You are using vdW-DF, which was implemented by the Thonhauser group. %
     % Please cite the following two papers that made this development      %
     % possible and the two reviews that describe the various versions:     %
     %                                                                      %
     %   T. Thonhauser et al., PRL 115, 136402 (2015).                      %
     %   T. Thonhauser et al., PRB 76, 125112 (2007).                       %
     %   K. Berland et al., Rep. Prog. Phys. 78, 066501 (2015).             %
     %   D.C. Langreth et al., J. Phys.: Condens. Matter 21, 084203 (2009). %
     %                                                                      %
     % If you are calculating stress with vdW-DF, please also cite:         %
     %                                                                      %
     %   R. Sabatini et al., J. Phys.: Condens. Matter 24, 424209 (2012).   %
     %                                                                      %
     %%%%%%%%%%%%%%%%%%%%%%%%%%%%%%%%%%%%%%%%%%%%%%%%%%%%%%%%%%%%%%%%%%%%%%%%

     %%%%%%%%%%%%%%%%%%%%%%%%%%%%%%%%%%%%%%%%%%%%%%%%%%%%%%%%%%%%%%%%%%%%%%%%
     %                                                                      %
     %  vdW-DF NEWS:                                                        %
     %                                                                      %
     %  * vdW-DF3 is now available. DOI: 10.1021/acs.jctc.0c00471           %
     %    use with input_dft = 'vdW-DF3-opt1' or 'vdW-DF3-opt2'             %
     %                                                                      %
     %  * Unscreened and range-separated hybrid vdW-DF-cx functionals       %
     %    DOI: 10.1063/1.4986522 and 10.1088/1361-648X/ac2ad2               %
     %    use with input_dft = 'vdW-DF-cx0'    and 'vdW-DF-ahcx'            %
     %  * Unscreened and range-separated hybrid vdW-DF2-b86r functionals    %
     %    DOI: 10.1063/1.4986522 and DOI: 10.1103/PhysRevX.12.041003        %
     %    use with input_dft = 'vdW-DF2-br0' and 'vdW-DF2-ahbr'             %
     %                                                                      %
     %%%%%%%%%%%%%%%%%%%%%%%%%%%%%%%%%%%%%%%%%%%%%%%%%%%%%%%%%%%%%%%%%%%%%%%%


     Starting wfcs are   56 randomized atomic wfcs
     Checking if some PAW data can be deallocated... 

     total cpu time spent up to now is       12.3 secs

     per-process dynamical memory:    79.7 Mb

     Self-consistent Calculation

     iteration #  1     ecut=    80.00 Ry     beta= 0.30
     Davidson diagonalization with overlap
     ethr =  1.00E-02,  avg # of iterations =  4.2

     Threshold (ethr) on eigenvalues was too large:
     Diagonalizing with lowered threshold

     Davidson diagonalization with overlap
     ethr =  4.44E-04,  avg # of iterations =  2.0

     negative rho (up, down):  5.702E-05 0.000E+00

     total cpu time spent up to now is       50.1 secs

     total energy              =   -2326.96621498 Ry
     estimated scf accuracy    <       0.45642788 Ry

     iteration #  2     ecut=    80.00 Ry     beta= 0.30
     Davidson diagonalization with overlap
     ethr =  4.96E-04,  avg # of iterations =  1.1

     negative rho (up, down):  4.003E-05 0.000E+00

     total cpu time spent up to now is       65.7 secs

     total energy              =   -2326.91998232 Ry
     estimated scf accuracy    <       0.23846873 Ry

     iteration #  3     ecut=    80.00 Ry     beta= 0.30
     Davidson diagonalization with overlap
     ethr =  2.59E-04,  avg # of iterations =  3.2

     negative rho (up, down):  1.913E-05 0.000E+00

     total cpu time spent up to now is       84.3 secs

     total energy              =   -2326.92692160 Ry
     estimated scf accuracy    <       0.03018061 Ry

     iteration #  4     ecut=    80.00 Ry     beta= 0.30
     Davidson diagonalization with overlap
     c_bands:  1 eigenvalues not converged
     c_bands:  1 eigenvalues not converged
     ethr =  3.28E-05,  avg # of iterations = 10.1

     negative rho (up, down):  9.703E-06 0.000E+00

     total cpu time spent up to now is      106.4 secs

     total energy              =   -2326.92717858 Ry
     estimated scf accuracy    <       0.00896113 Ry

     iteration #  5     ecut=    80.00 Ry     beta= 0.30
     Davidson diagonalization with overlap
     ethr =  9.74E-06,  avg # of iterations =  4.5

     negative rho (up, down):  1.626E-06 0.000E+00

     total cpu time spent up to now is      126.4 secs

     total energy              =   -2326.92676992 Ry
     estimated scf accuracy    <       0.00350305 Ry

     iteration #  6     ecut=    80.00 Ry     beta= 0.30
     Davidson diagonalization with overlap
     c_bands:  1 eigenvalues not converged
     ethr =  3.81E-06,  avg # of iterations =  7.0

     negative rho (up, down):  8.744E-07 0.000E+00

     total cpu time spent up to now is      148.2 secs

     total energy              =   -2326.92687044 Ry
     estimated scf accuracy    <       0.00169571 Ry

     iteration #  7     ecut=    80.00 Ry     beta= 0.30
     Davidson diagonalization with overlap
     ethr =  1.84E-06,  avg # of iterations =  2.8

     negative rho (up, down):  6.823E-07 0.000E+00

     total cpu time spent up to now is      166.0 secs

     total energy              =   -2326.92671976 Ry
     estimated scf accuracy    <       0.00161972 Ry

     iteration #  8     ecut=    80.00 Ry     beta= 0.30
     Davidson diagonalization with overlap
     ethr =  1.76E-06,  avg # of iterations =  4.7

     negative rho (up, down):  6.431E-05 0.000E+00

     total cpu time spent up to now is      184.6 secs

     total energy              =   -2326.92659642 Ry
     estimated scf accuracy    <       0.00125724 Ry

     iteration #  9     ecut=    80.00 Ry     beta= 0.30
     Davidson diagonalization with overlap
     ethr =  1.37E-06,  avg # of iterations =  5.7

     negative rho (up, down):  6.203E-03 0.000E+00

     total cpu time spent up to now is      202.8 secs

     total energy              =   -2326.92642768 Ry
     estimated scf accuracy    <       0.00085660 Ry

     iteration # 10     ecut=    80.00 Ry     beta= 0.30
     Davidson diagonalization with overlap
     ethr =  9.31E-07,  avg # of iterations =  8.1

     negative rho (up, down):  3.839E-03 0.000E+00

     total cpu time spent up to now is      222.7 secs

     total energy              =   -2326.92648098 Ry
     estimated scf accuracy    <       0.00040282 Ry

     iteration # 11     ecut=    80.00 Ry     beta= 0.30
     Davidson diagonalization with overlap
     ethr =  4.38E-07,  avg # of iterations =  2.3

     negative rho (up, down):  3.586E-03 0.000E+00

     total cpu time spent up to now is      239.6 secs

     total energy              =   -2326.92646271 Ry
     estimated scf accuracy    <       0.00030137 Ry

     iteration # 12     ecut=    80.00 Ry     beta= 0.30
     Davidson diagonalization with overlap
     ethr =  3.28E-07,  avg # of iterations =  5.7

     negative rho (up, down):  2.866E-03 0.000E+00

     total cpu time spent up to now is      257.4 secs

     total energy              =   -2326.92645287 Ry
     estimated scf accuracy    <       0.00022710 Ry

     iteration # 13     ecut=    80.00 Ry     beta= 0.30
     Davidson diagonalization with overlap
     ethr =  2.47E-07,  avg # of iterations =  2.4

     negative rho (up, down):  4.664E-03 0.000E+00

     total cpu time spent up to now is      274.5 secs

     total energy              =   -2326.92633464 Ry
     estimated scf accuracy    <       0.00017049 Ry

     iteration # 14     ecut=    80.00 Ry     beta= 0.30
     Davidson diagonalization with overlap
     ethr =  1.85E-07,  avg # of iterations =  5.8

     negative rho (up, down):  5.213E-03 0.000E+00

     total cpu time spent up to now is      292.5 secs

     total energy              =   -2326.92634996 Ry
     estimated scf accuracy    <       0.00008649 Ry

     iteration # 15     ecut=    80.00 Ry     beta= 0.30
     Davidson diagonalization with overlap
     ethr =  9.40E-08,  avg # of iterations =  1.3

     negative rho (up, down):  3.680E-03 0.000E+00

     total cpu time spent up to now is      308.9 secs

     total energy              =   -2326.92642984 Ry
     estimated scf accuracy    <       0.00005635 Ry

     iteration # 16     ecut=    80.00 Ry     beta= 0.30
     Davidson diagonalization with overlap
     ethr =  6.13E-08,  avg # of iterations =  6.3

     negative rho (up, down):  1.697E-03 0.000E+00

     total cpu time spent up to now is      329.9 secs

     total energy              =   -2326.92643510 Ry
     estimated scf accuracy    <       0.00002097 Ry

     iteration # 17     ecut=    80.00 Ry     beta= 0.30
     Davidson diagonalization with overlap
     ethr =  2.28E-08,  avg # of iterations =  6.2

     negative rho (up, down):  1.382E-03 0.000E+00

     total cpu time spent up to now is      351.2 secs

     total energy              =   -2326.92644279 Ry
     estimated scf accuracy    <       0.00000827 Ry

     iteration # 18     ecut=    80.00 Ry     beta= 0.30
     Davidson diagonalization with overlap
     ethr =  8.99E-09,  avg # of iterations =  2.9

     negative rho (up, down):  6.759E-04 0.000E+00

     total cpu time spent up to now is      368.8 secs

     total energy              =   -2326.92645244 Ry
     estimated scf accuracy    <       0.00000328 Ry

     iteration # 19     ecut=    80.00 Ry     beta= 0.30
     Davidson diagonalization with overlap
     ethr =  3.56E-09,  avg # of iterations =  3.1

     negative rho (up, down):  4.601E-04 0.000E+00

     total cpu time spent up to now is      387.7 secs

     total energy              =   -2326.92645294 Ry
     estimated scf accuracy    <       0.00000054 Ry

     iteration # 20     ecut=    80.00 Ry     beta= 0.30
     Davidson diagonalization with overlap
     ethr =  5.84E-10,  avg # of iterations =  3.3

     negative rho (up, down):  2.546E-04 0.000E+00

     total cpu time spent up to now is      405.9 secs

     total energy              =   -2326.92645305 Ry
     estimated scf accuracy    <       0.00000023 Ry

     iteration # 21     ecut=    80.00 Ry     beta= 0.30
     Davidson diagonalization with overlap
     ethr =  2.48E-10,  avg # of iterations =  3.4

     negative rho (up, down):  2.353E-04 0.000E+00

     total cpu time spent up to now is      426.9 secs

     total energy              =   -2326.92645328 Ry
     estimated scf accuracy    <       0.00000004 Ry

     iteration # 22     ecut=    80.00 Ry     beta= 0.30
     Davidson diagonalization with overlap
     ethr =  4.54E-11,  avg # of iterations =  1.4

     negative rho (up, down):  2.198E-04 0.000E+00

     total cpu time spent up to now is      443.2 secs

     total energy              =   -2326.92645406 Ry
     estimated scf accuracy    <       0.00000002 Ry

     iteration # 23     ecut=    80.00 Ry     beta= 0.30
     Davidson diagonalization with overlap
     ethr =  2.64E-11,  avg # of iterations =  2.6

     negative rho (up, down):  2.165E-04 0.000E+00

     total cpu time spent up to now is      462.4 secs

     End of self-consistent calculation

          k = 0.0000 0.0000 0.0000 ( 37787 PWs)   bands (ev):

   -61.9004 -61.8994 -48.2978 -48.2978 -48.2962 -48.2962 -48.2952 -48.2952
   -48.2936 -48.2936 -48.2527 -48.2527 -48.2511 -48.2511 -48.2496 -48.2496
   -48.2482 -48.2482 -48.2342 -48.2326 -48.2309 -48.2295 -36.0188 -36.0177
   -35.9035 -35.9035 -35.9020 -35.9020 -15.2980 -15.2933 -14.4806 -14.4756
    -6.4614  -6.4196  -3.4274  -3.3647  -3.3647  -3.3585  -3.3585  -3.2620
    -1.6514  -1.5336  -1.0685  -1.0685  -1.0655  -1.0655   0.2264   0.2264
     0.2295   0.2295   2.9449   2.9449   2.9476   2.9476   3.3181

          k = 0.0000 0.0722 0.0000 ( 37755 PWs)   bands (ev):

   -61.8994 -61.8984 -48.2978 -48.2977 -48.2962 -48.2960 -48.2952 -48.2950
   -48.2936 -48.2935 -48.2528 -48.2527 -48.2512 -48.2512 -48.2497 -48.2496
   -48.2482 -48.2482 -48.2341 -48.2325 -48.2308 -48.2294 -36.0166 -36.0155
   -35.9141 -35.9127 -35.9059 -35.9045 -15.2412 -15.2365 -14.4510 -14.4461
    -6.3837  -6.3418  -3.8698  -3.8069  -3.3327  -3.3264  -2.9867  -2.8882
    -1.6792  -1.5840  -1.2621  -1.2495  -1.2153  -1.2121   0.1087   0.1306
     0.3393   0.3421   2.6126   2.6377   2.8960   2.8990   3.4463

          k = 0.0000 0.1443 0.0000 ( 37697 PWs)   bands (ev):

   -61.8967 -61.8957 -48.2978 -48.2971 -48.2962 -48.2955 -48.2951 -48.2944
   -48.2936 -48.2929 -48.2530 -48.2528 -48.2514 -48.2512 -48.2498 -48.2497
   -48.2484 -48.2482 -48.2338 -48.2323 -48.2305 -48.2291 -36.0102 -36.0091
   -35.9442 -35.9428 -35.9128 -35.9114 -15.0748 -15.0702 -14.3647 -14.3600
    -6.1584  -6.1165  -4.3460  -4.2986  -3.2573  -3.2511  -2.7620  -2.6770
    -2.0927  -2.0667  -1.5027  -1.4991  -1.4964  -1.4215  -0.0269   0.0269
     0.5295   0.5320   1.9941   2.0669   2.7957   2.7995   3.7320

          k = 0.0000 0.2165 0.0000 ( 37653 PWs)   bands (ev):

   -61.8926 -61.8916 -48.2978 -48.2963 -48.2961 -48.2951 -48.2947 -48.2936
   -48.2936 -48.2921 -48.2532 -48.2529 -48.2516 -48.2513 -48.2501 -48.2498
   -48.2486 -48.2483 -48.2335 -48.2319 -48.2301 -48.2288 -36.0010 -35.9999
   -35.9887 -35.9872 -35.9232 -35.9218 -14.8118 -14.8073 -14.2281 -14.2236
    -5.8173  -5.7763  -4.7687  -4.7329  -3.2639  -3.2559  -3.2056  -3.1995
    -2.4785  -2.4010  -1.7263  -1.7224  -1.5881  -1.5328  -0.0686   0.0032
     0.6356   0.6379   1.5998   1.7369   2.7297   2.7342   4.0989

          k = 0.0000 0.2887 0.0000 ( 37721 PWs)   bands (ev):

   -61.8877 -61.8867 -48.2978 -48.2961 -48.2954 -48.2951 -48.2938 -48.2936
   -48.2927 -48.2912 -48.2535 -48.2530 -48.2520 -48.2514 -48.2503 -48.2499
   -48.2489 -48.2484 -48.2330 -48.2314 -48.2297 -48.2283 -36.0417 -36.0402
   -35.9891 -35.9880 -35.9354 -35.9340 -14.4785 -14.4742 -14.0500 -14.0458
    -5.5019  -5.4684  -5.0059  -4.9746  -4.2836  -4.2794  -3.2599  -3.2541
    -2.6526  -2.5959  -1.8286  -1.7982  -1.7697  -1.7655   0.0065   0.0871
     0.6403   0.6427   1.6758   1.8720   2.7304   2.7359   4.5378

          k = 0.0000 0.3608 0.0000 ( 37749 PWs)   bands (ev):

   -61.8829 -61.8819 -48.2978 -48.2961 -48.2951 -48.2945 -48.2935 -48.2929
   -48.2919 -48.2903 -48.2539 -48.2531 -48.2523 -48.2516 -48.2506 -48.2500
   -48.2491 -48.2485 -48.2326 -48.2310 -48.2292 -48.2279 -36.0937 -36.0922
   -35.9777 -35.9767 -35.9476 -35.9461 -14.1301 -14.1260 -13.8302 -13.8264
    -5.6090  -5.5931  -5.2423  -5.2358  -4.7426  -4.7104  -3.4084  -3.4028
    -3.0008  -2.9659  -2.0905  -2.0669  -1.6643  -1.6600   0.2692   0.3422
     0.6171   0.6193   2.0776   2.3029   2.7664   2.7731   5.0000

          k = 0.0000 0.4330 0.0000 ( 37785 PWs)   bands (ev):

   -61.8787 -61.8778 -48.2978 -48.2961 -48.2950 -48.2938 -48.2935 -48.2921
   -48.2911 -48.2896 -48.2542 -48.2532 -48.2526 -48.2517 -48.2508 -48.2501
   -48.2493 -48.2486 -48.2322 -48.2306 -48.2289 -48.2275 -36.1374 -36.1359
   -35.9681 -35.9671 -35.9579 -35.9564 -13.8660 -13.8621 -13.5511 -13.5476
    -6.2033  -6.1989  -5.5872  -5.5713  -4.5448  -4.5282  -3.5675  -3.5621
    -3.2541  -3.2209  -2.2605  -2.2433  -1.5304  -1.5262   0.6315   0.6336
     0.6442   0.6979   2.5958   2.8025   2.8078   2.8102   5.0801

          k = 0.0000 0.5052 0.0000 ( 37822 PWs)   bands (ev):

   -61.8760 -61.8750 -48.2978 -48.2961 -48.2950 -48.2935 -48.2932 -48.2916
   -48.2906 -48.2890 -48.2544 -48.2533 -48.2528 -48.2517 -48.2509 -48.2501
   -48.2495 -48.2487 -48.2319 -48.2304 -48.2286 -48.2272 -36.1665 -36.1649
   -35.9647 -35.9633 -35.9617 -35.9606 -13.7207 -13.7168 -13.2890 -13.2860
    -6.7609  -6.7565  -5.6060  -5.5952  -4.7082  -4.6985  -3.6796  -3.6742
    -3.1325  -3.1019  -2.3852  -2.3746  -1.4432  -1.4389   0.6805   0.6829
     0.9978   1.0285   2.8248   2.8331   3.0728   3.2166   4.5960

          k = 0.0000-0.5774 0.0000 ( 37832 PWs)   bands (ev):

   -61.8750 -61.8740 -48.2978 -48.2961 -48.2950 -48.2935 -48.2931 -48.2914
   -48.2904 -48.2889 -48.2544 -48.2533 -48.2528 -48.2517 -48.2510 -48.2501
   -48.2495 -48.2487 -48.2318 -48.2303 -48.2285 -48.2271 -36.1767 -36.1751
   -35.9671 -35.9657 -35.9594 -35.9584 -13.6732 -13.6693 -13.1823 -13.1795
    -6.9661  -6.9617  -5.5737  -5.5686  -4.8511  -4.8409  -3.7192  -3.7139
    -3.0001  -2.9765  -2.4526  -2.4442  -1.4154  -1.4112   0.7080   0.7105
     1.1533   1.1674   2.8319   2.8406   3.3261   3.4013   4.2652

          k = 0.0625 0.1083 0.0000 ( 37709 PWs)   bands (ev):

   -61.8976 -61.8966 -48.2978 -48.2973 -48.2961 -48.2957 -48.2951 -48.2946
   -48.2936 -48.2931 -48.2529 -48.2528 -48.2513 -48.2512 -48.2498 -48.2497
   -48.2483 -48.2482 -48.2339 -48.2324 -48.2306 -48.2292 -36.0123 -36.0112
   -35.9342 -35.9327 -35.9109 -35.9095 -15.1296 -15.1249 -14.3931 -14.3883
    -6.2318  -6.1898  -4.2195  -4.1680  -3.2862  -3.2799  -2.7878  -2.6916
    -1.8935  -1.8657  -1.5078  -1.4968  -1.4125  -1.3514   0.0380   0.0835
     0.4295   0.4317   2.2303   2.2869   2.7527   2.7548   3.6491

          k = 0.0625 0.1804 0.0000 ( 37703 PWs)   bands (ev):

   -61.8941 -61.8932 -48.2978 -48.2967 -48.2961 -48.2951 -48.2950 -48.2940
   -48.2936 -48.2925 -48.2531 -48.2529 -48.2515 -48.2513 -48.2500 -48.2498
   -48.2485 -48.2483 -48.2336 -48.2320 -48.2303 -48.2289 -36.0043 -36.0033
   -35.9708 -35.9693 -35.9204 -35.9189 -14.9144 -14.9099 -14.2818 -14.2772
    -5.9437  -5.9020  -4.6262  -4.5867  -3.2804  -3.2744  -2.8361  -2.7947
    -2.4727  -2.4392  -1.7697  -1.7440  -1.4486  -1.3824   0.0287   0.0889
     0.4262   0.4354   1.8881   1.9882   2.5772   2.5822   3.9649

          k = 0.0625 0.2526 0.0000 ( 37702 PWs)   bands (ev):

   -61.8897 -61.8887 -48.2977 -48.2961 -48.2958 -48.2950 -48.2942 -48.2935
   -48.2932 -48.2916 -48.2534 -48.2530 -48.2518 -48.2514 -48.2502 -48.2499
   -48.2488 -48.2484 -48.2332 -48.2316 -48.2299 -48.2285 -36.0185 -36.0170
   -35.9937 -35.9926 -35.9328 -35.9313 -14.6143 -14.6099 -14.1255 -14.1212
    -5.5750  -5.5357  -4.9654  -4.9344  -3.8391  -3.8352  -3.2281  -3.2196
    -2.6242  -2.5818  -1.9773  -1.9551  -1.4685  -1.4266  -0.0377   0.0241
     0.4944   0.5254   1.7616   1.8966   2.5411   2.5624   4.3658

          k = 0.0625 0.3248 0.0000 ( 37734 PWs)   bands (ev):

   -61.8848 -61.8838 -48.2977 -48.2960 -48.2950 -48.2949 -48.2935 -48.2933
   -48.2923 -48.2908 -48.2537 -48.2531 -48.2521 -48.2515 -48.2505 -48.2500
   -48.2490 -48.2485 -48.2327 -48.2312 -48.2294 -48.2280 -36.0694 -36.0679
   -35.9824 -35.9814 -35.9462 -35.9447 -14.2658 -14.2616 -13.9317 -13.9277
    -5.4597  -5.4355  -4.9395  -4.9135  -4.7867  -4.7761  -3.4671  -3.4593
    -2.7433  -2.7121  -2.2854  -2.2766  -1.4486  -1.4251   0.0123   0.0741
     0.6448   0.6708   1.8866   2.0367   2.6186   2.6740   4.8328

          k = 0.0625 0.3969 0.0000 ( 37770 PWs)   bands (ev):

   -61.8803 -61.8793 -48.2976 -48.2960 -48.2949 -48.2941 -48.2934 -48.2925
   -48.2915 -48.2899 -48.2540 -48.2532 -48.2524 -48.2516 -48.2507 -48.2501
   -48.2492 -48.2486 -48.2323 -48.2308 -48.2290 -48.2276 -36.1162 -36.1146
   -35.9720 -35.9710 -35.9584 -35.9570 -13.9494 -13.9455 -13.6872 -13.6836
    -5.8193  -5.8144  -5.4908  -5.4754  -4.5739  -4.5478  -3.7129  -3.7037
    -3.0015  -2.9811  -2.5040  -2.4946  -1.3746  -1.3620   0.2187   0.2623
     0.8031   0.8256   2.1921   2.2969   2.7620   2.8752   5.2348

          k = 0.0625 0.4691 0.0000 ( 37798 PWs)   bands (ev):

   -61.8769 -61.8759 -48.2976 -48.2960 -48.2949 -48.2935 -48.2934 -48.2919
   -48.2909 -48.2893 -48.2543 -48.2533 -48.2527 -48.2517 -48.2509 -48.2501
   -48.2494 -48.2487 -48.2320 -48.2304 -48.2287 -48.2273 -36.1517 -36.1501
   -35.9682 -35.9668 -35.9636 -35.9625 -13.7518 -13.7479 -13.4014 -13.3981
    -6.4741  -6.4697  -5.5961  -5.5830  -4.5603  -4.5496  -3.8066  -3.7975
    -3.1178  -3.0947  -2.6085  -2.6009  -1.3309  -1.3249   0.4728   0.4941
     0.9855   1.0067   2.4570   2.4896   2.9965   3.1378   5.0408

          k = 0.0625 0.5413 0.0000 ( 37791 PWs)   bands (ev):

   -61.8750 -61.8740 -48.2976 -48.2960 -48.2949 -48.2933 -48.2932 -48.2915
   -48.2905 -48.2890 -48.2544 -48.2533 -48.2528 -48.2518 -48.2510 -48.2502
   -48.2495 -48.2487 -48.2318 -48.2303 -48.2285 -48.2271 -36.1708 -36.1692
   -35.9731 -35.9717 -35.9594 -35.9584 -13.6585 -13.6547 -13.2060 -13.2031
    -6.8610  -6.8566  -5.5756  -5.5686  -4.7696  -4.7596  -3.8222  -3.8167
    -3.0035  -2.9825  -2.6794  -2.6747  -1.3306  -1.3272   0.6615   0.6676
     1.1180   1.1329   2.5696   2.5773   3.2609   3.3496   4.5519

          k = 0.1250 0.2165 0.0000 ( 37731 PWs)   bands (ev):

   -61.8903 -61.8894 -48.2977 -48.2960 -48.2960 -48.2950 -48.2944 -48.2935
   -48.2934 -48.2918 -48.2534 -48.2530 -48.2518 -48.2514 -48.2502 -48.2499
   -48.2487 -48.2484 -48.2333 -48.2317 -48.2299 -48.2286 -36.0086 -36.0072
   -35.9955 -35.9944 -35.9333 -35.9319 -14.6608 -14.6564 -14.1514 -14.1471
    -5.6066  -5.5656  -4.9333  -4.9019  -3.6974  -3.6928  -3.0296  -2.9957
    -2.8673  -2.8629  -1.9551  -1.9146  -1.3561  -1.2970   0.0345   0.0616
     0.2778   0.3447   2.0937   2.1796   2.1838   2.2372   4.3102

          k = 0.1250 0.2887 0.0000 ( 37723 PWs)   bands (ev):

   -61.8859 -61.8849 -48.2975 -48.2959 -48.2953 -48.2948 -48.2936 -48.2933
   -48.2926 -48.2911 -48.2536 -48.2531 -48.2521 -48.2515 -48.2504 -48.2500
   -48.2489 -48.2485 -48.2328 -48.2313 -48.2295 -48.2281 -36.0522 -36.0507
   -35.9852 -35.9841 -35.9493 -35.9478 -14.3383 -14.3341 -13.9839 -13.9799
    -5.2876  -5.2577  -5.0977  -5.0646  -4.4652  -4.4613  -3.4712  -3.4564
    -2.9583  -2.9519  -2.2129  -2.1906  -1.2232  -1.1780  -0.1889  -0.1403
     0.5741   0.6305   1.8547   1.8832   2.4010   2.5511   4.7458

          k = 0.1250 0.3608 0.0000 ( 37761 PWs)   bands (ev):

   -61.8814 -61.8804 -48.2974 -48.2958 -48.2947 -48.2945 -48.2932 -48.2929
   -48.2919 -48.2904 -48.2539 -48.2532 -48.2523 -48.2516 -48.2506 -48.2501
   -48.2492 -48.2486 -48.2324 -48.2309 -48.2291 -48.2277 -36.0951 -36.0936
   -35.9753 -35.9743 -35.9650 -35.9636 -13.9980 -13.9940 -13.7827 -13.7789
    -5.4814  -5.4668  -5.2663  -5.2606  -4.6848  -4.6512  -3.8565  -3.8462
    -3.0575  -3.0517  -2.6366  -2.6265  -1.0841  -1.0541  -0.1544  -0.1047
     0.8672   0.9018   1.7671   1.8061   2.6988   2.8659   5.2280

          k = 0.1250 0.4330 0.0000 ( 37768 PWs)   bands (ev):

   -61.8776 -61.8766 -48.2973 -48.2956 -48.2946 -48.2939 -48.2930 -48.2923
   -48.2913 -48.2897 -48.2542 -48.2533 -48.2526 -48.2517 -48.2508 -48.2502
   -48.2493 -48.2487 -48.2321 -48.2305 -48.2288 -48.2274 -36.1311 -36.1295
   -35.9804 -35.9789 -35.9651 -35.9641 -13.7479 -13.7440 -13.5194 -13.5159
    -6.0654  -6.0611  -5.5298  -5.5159  -4.4054  -4.3888  -4.0856  -4.0713
    -3.1685  -3.1641  -2.9853  -2.9748  -1.0448  -1.0279   0.0951   0.1332
     1.0671   1.0835   1.8779   1.9146   2.9834   3.1321   5.4397

          k = 0.1250 0.5052 0.0000 ( 37794 PWs)   bands (ev):

   -61.8750 -61.8740 -48.2972 -48.2956 -48.2945 -48.2935 -48.2930 -48.2919
   -48.2909 -48.2893 -48.2543 -48.2534 -48.2527 -48.2518 -48.2509 -48.2502
   -48.2495 -48.2488 -48.2318 -48.2303 -48.2285 -48.2271 -36.1550 -36.1534
   -35.9894 -35.9880 -35.9594 -35.9584 -13.6159 -13.6121 -13.2702 -13.2671
    -6.5688  -6.5644  -5.5606  -5.5518  -4.5740  -4.5648  -4.0351  -4.0252
    -3.2492  -3.2461  -3.0510  -3.0369  -1.0983  -1.0884   0.4417   0.4638
     1.1206   1.1290   2.0521   2.0751   3.1961   3.2881   5.1288

          k = 0.1250 0.5774 0.0000 ( 37780 PWs)   bands (ev):

   -61.8741 -61.8731 -48.2972 -48.2956 -48.2945 -48.2934 -48.2929 -48.2917
   -48.2907 -48.2892 -48.2544 -48.2534 -48.2528 -48.2519 -48.2510 -48.2502
   -48.2495 -48.2488 -48.2318 -48.2302 -48.2284 -48.2271 -36.1634 -36.1618
   -35.9927 -35.9912 -35.9574 -35.9564 -13.5722 -13.5684 -13.1708 -13.1679
    -6.7523  -6.7480  -5.5505  -5.5460  -4.6889  -4.6790  -4.0298  -4.0232
    -3.2781  -3.2757  -3.0045  -2.9925  -1.1367  -1.1281   0.6527   0.6575
     1.0711   1.0809   2.1459   2.1483   3.2761   3.3363   4.9074

          k = 0.1875 0.3248 0.0000 ( 37725 PWs)   bands (ev):

   -61.8817 -61.8808 -48.2973 -48.2956 -48.2948 -48.2945 -48.2931 -48.2930
   -48.2921 -48.2905 -48.2539 -48.2532 -48.2523 -48.2516 -48.2506 -48.2501
   -48.2491 -48.2487 -48.2325 -48.2309 -48.2291 -48.2278 -36.0856 -36.0840
   -35.9774 -35.9763 -35.9686 -35.9672 -14.0134 -14.0094 -13.8174 -13.8136
    -5.3514  -5.3326  -5.0967  -5.0927  -4.7741  -4.7395  -3.8612  -3.8482
    -3.3371  -3.3329  -2.5161  -2.5082  -0.9222  -0.8813  -0.3330  -0.2842
     0.8601   0.9049   1.5943   1.6073   2.6806   2.8613   5.2104

          k = 0.1875 0.3969 0.0000 ( 37753 PWs)   bands (ev):

   -61.8779 -61.8770 -48.2970 -48.2953 -48.2944 -48.2942 -48.2928 -48.2926
   -48.2916 -48.2901 -48.2541 -48.2533 -48.2525 -48.2518 -48.2508 -48.2502
   -48.2493 -48.2488 -48.2321 -48.2305 -48.2288 -48.2274 -36.1143 -36.1128
   -35.9927 -35.9912 -35.9659 -35.9649 -13.7103 -13.7065 -13.6197 -13.6161
    -5.6964  -5.6924  -5.4523  -5.4386  -4.3709  -4.3423  -4.2113  -4.2007
    -3.6628  -3.6590  -2.9119  -2.9098  -0.7084  -0.6813  -0.2610  -0.2201
     1.0916   1.1164   1.5053   1.5335   2.9843   3.1370   5.6380

          k = 0.1875 0.4691 0.0000 ( 37759 PWs)   bands (ev):

   -61.8750 -61.8740 -48.2968 -48.2951 -48.2941 -48.2939 -48.2926 -48.2923
   -48.2913 -48.2898 -48.2542 -48.2535 -48.2526 -48.2519 -48.2509 -48.2503
   -48.2494 -48.2488 -48.2318 -48.2303 -48.2285 -48.2271 -36.1352 -36.1336
   -36.0097 -36.0082 -35.9594 -35.9584 -13.5497 -13.5460 -13.3573 -13.3540
    -6.1808  -6.1767  -5.5172  -5.5082  -4.4329  -4.4239  -4.1281  -4.1114
    -3.8886  -3.8844  -3.1828  -3.1788  -0.7536  -0.7379   0.0881   0.1145
     1.1406   1.1494   1.6502   1.6888   3.1805   3.2664   5.5831

          k = 0.1875 0.5413 0.0000 ( 37793 PWs)   bands (ev):

   -61.8734 -61.8725 -48.2966 -48.2950 -48.2940 -48.2937 -48.2924 -48.2921
   -48.2911 -48.2896 -48.2543 -48.2536 -48.2527 -48.2520 -48.2510 -48.2503
   -48.2495 -48.2489 -48.2317 -48.2301 -48.2284 -48.2270 -36.1462 -36.1446
   -36.0194 -36.0179 -35.9558 -35.9548 -13.4720 -13.4684 -13.1877 -13.1846
    -6.4582  -6.4539  -5.5437  -5.5387  -4.5264  -4.5174  -4.1665  -4.1584
    -3.9630  -3.9595  -3.2048  -3.1990  -0.8393  -0.8278   0.4632   0.4740
     0.9950   1.0004   1.8677   1.8928   3.1980   3.2406   5.4590

          k = 0.2500 0.4330 0.0000 ( 37711 PWs)   bands (ev):

   -61.8750 -61.8740 -48.2965 -48.2949 -48.2942 -48.2937 -48.2926 -48.2922
   -48.2915 -48.2900 -48.2542 -48.2535 -48.2526 -48.2519 -48.2509 -48.2503
   -48.2494 -48.2489 -48.2318 -48.2303 -48.2285 -48.2271 -36.1248 -36.1232
   -36.0203 -36.0188 -35.9594 -35.9584 -13.4879 -13.4843 -13.4276 -13.4242
    -5.9602  -5.9561  -5.4853  -5.4769  -4.4157  -4.4046  -4.2514  -4.2481
    -4.0555  -4.0350  -3.2786  -3.2746  -0.3552  -0.3265  -0.3149  -0.3016
     1.1326   1.1471   1.5234   1.5659   3.1818   3.2637   5.8156

          k = 0.2500 0.5052 0.0000 ( 37776 PWs)   bands (ev):

   -61.8731 -61.8721 -48.2961 -48.2945 -48.2943 -48.2933 -48.2926 -48.2918
   -48.2915 -48.2900 -48.2542 -48.2536 -48.2526 -48.2520 -48.2510 -48.2504
   -48.2495 -48.2489 -48.2317 -48.2301 -48.2284 -48.2270 -36.1273 -36.1258
   -36.0434 -36.0419 -35.9550 -35.9540 -13.3781 -13.3745 -13.2405 -13.2373
    -6.1080  -6.1039  -5.5353  -5.5302  -4.6712  -4.6674  -4.3923  -4.3822
    -3.9763  -3.9665  -3.5158  -3.5129  -0.4449  -0.4303   0.0542   0.0632
     0.9590   0.9630   1.8099   1.8609   3.1432   3.1593   5.6791

          k = 0.2500 0.5774 0.0000 ( 37791 PWs)   bands (ev):

   -61.8724 -61.8714 -48.2960 -48.2943 -48.2943 -48.2932 -48.2927 -48.2916
   -48.2916 -48.2901 -48.2542 -48.2537 -48.2526 -48.2521 -48.2510 -48.2504
   -48.2496 -48.2489 -48.2316 -48.2301 -48.2283 -48.2269 -36.1268 -36.1252
   -36.0529 -36.0514 -35.9535 -35.9525 -13.3394 -13.3359 -13.1706 -13.1675
    -6.1510  -6.1468  -5.5650  -5.5608  -4.8242  -4.8204  -4.2123  -4.2057
    -4.1884  -4.1841  -3.5161  -3.5140  -0.4942  -0.4824   0.3143   0.3200
     0.7520   0.7562   2.0398   2.0686   3.0091   3.0193   5.6083

          k = 0.3125 0.5413 0.0000 ( 37789 PWs)   bands (ev):

   -61.8720 -61.8710 -48.2955 -48.2947 -48.2938 -48.2930 -48.2927 -48.2920
   -48.2912 -48.2904 -48.2542 -48.2537 -48.2526 -48.2522 -48.2511 -48.2504
   -48.2496 -48.2489 -48.2316 -48.2300 -48.2283 -48.2269 -36.1093 -36.1077
   -36.0754 -36.0739 -35.9526 -35.9516 -13.2601 -13.2565 -13.1979 -13.1948
    -5.8468  -5.8424  -5.5746  -5.5705  -5.2639  -5.2599  -4.2255  -4.2161
    -3.8870  -3.8838  -3.8795  -3.8746  -0.1584  -0.1435   0.0223   0.0314
     0.6536   0.6559   2.2377   2.2865   2.8140   2.8412   5.5692

     the Fermi energy is    -0.3020 ev

!    total energy              =   -2326.92645415 Ry
     total all-electron energy =    -35628.674283 Ry
     estimated scf accuracy    <          2.4E-09 Ry
     smearing contrib. (-TS)   =       0.00087200 Ry
     internal energy E=F+TS    =   -2326.92732616 Ry

     The total energy is F=E-TS. E is the sum of the following terms:
     one-electron contribution =  -25289.55611579 Ry
     hartree contribution      =   12632.99078919 Ry
     xc contribution           =    -152.42487647 Ry
     ewald contribution        =   11492.57723241 Ry
     one-center paw contrib.   =   -1010.51435550 Ry

     convergence has been achieved in  23 iterations

     Writing all to output data dir ./tmp/cleave_010/mose2_cleave_010.save/ :
     XML data file, charge density, pseudopotentials, collected wavefunctions

     init_run     :     11.86s CPU     12.07s WALL (       1 calls)
     electrons    :    438.05s CPU    450.18s WALL (       1 calls)

     Called by init_run:
     wfcinit      :      5.49s CPU      5.53s WALL (       1 calls)
     potinit      :      5.72s CPU      5.77s WALL (       1 calls)
     hinit0       :      0.05s CPU      0.06s WALL (       1 calls)

     Called by electrons:
     c_bands      :    364.17s CPU    371.05s WALL (      24 calls)
     sum_band     :     48.44s CPU     51.01s WALL (      24 calls)
     v_of_rho     :     14.85s CPU     15.65s WALL (      24 calls)
     newd         :      9.29s CPU     11.15s WALL (      24 calls)
     PAW_pot      :      1.49s CPU      1.54s WALL (      24 calls)
     mix_rho      :      5.67s CPU      5.75s WALL (      24 calls)
     vdW_kernel   :      5.27s CPU      5.28s WALL (       1 calls)

     Called by c_bands:
     init_us_2    :      2.21s CPU      2.22s WALL (    1470 calls)
     cegterg      :    353.14s CPU    359.70s WALL (     720 calls)

     Called by *egterg:
     cdiaghg      :     10.16s CPU     10.18s WALL (    3691 calls)
     h_psi        :    142.27s CPU    144.11s WALL (    3751 calls)
     s_psi        :     21.48s CPU     21.51s WALL (    3751 calls)
     g_psi        :      0.31s CPU      0.32s WALL (    3001 calls)

     Called by h_psi:
     h_psi:calbec :     46.43s CPU     47.48s WALL (    3751 calls)
     vloc_psi     :     70.88s CPU     71.64s WALL (    3751 calls)
                                        0.00s GPU  (    3751 calls)
     add_vuspsi   :     24.61s CPU     24.64s WALL (    3751 calls)

     General routines
     calbec       :     66.33s CPU     67.83s WALL (    4471 calls)
     fft          :      6.85s CPU      7.05s WALL (    1511 calls)
     ffts         :      2.16s CPU      2.18s WALL (    2754 calls)
     fftw         :     82.36s CPU     83.25s WALL (  216664 calls)
     interpolate  :      0.11s CPU      0.11s WALL (      24 calls)

     Parallel routines

     PWSCF        :   7m30.58s CPU   7m43.18s WALL


   This run was terminated on:  10:13:15  20Jun2026            

=------------------------------------------------------------------------------=
   JOB DONE.
=------------------------------------------------------------------------------=
Note: The following floating-point exceptions are signalling: IEEE_UNDERFLOW_FLAG IEEE_DENORMAL
Note: The following floating-point exceptions are signalling: IEEE_UNDERFLOW_FLAG IEEE_DENORMAL
Note: The following floating-point exceptions are signalling: IEEE_UNDERFLOW_FLAG IEEE_DENORMAL
Note: The following floating-point exceptions are signalling: IEEE_UNDERFLOW_FLAG IEEE_DENORMAL
Note: The following floating-point exceptions are signalling: IEEE_UNDERFLOW_FLAG IEEE_DENORMAL
Note: The following floating-point exceptions are signalling: IEEE_UNDERFLOW_FLAG IEEE_DENORMAL
Note: The following floating-point exceptions are signalling: IEEE_UNDERFLOW_FLAG IEEE_DENORMAL
Note: The following floating-point exceptions are signalling: IEEE_UNDERFLOW_FLAG IEEE_DENORMAL
Note: The following floating-point exceptions are signalling: IEEE_UNDERFLOW_FLAG IEEE_DENORMAL
Note: The following floating-point exceptions are signalling: IEEE_UNDERFLOW_FLAG IEEE_DENORMAL
Note: The following floating-point exceptions are signalling: IEEE_UNDERFLOW_FLAG IEEE_DENORMAL
Note: The following floating-point exceptions are signalling: IEEE_UNDERFLOW_FLAG IEEE_DENORMAL
Note: The following floating-point exceptions are signalling: IEEE_UNDERFLOW_FLAG IEEE_DENORMAL
Note: The following floating-point exceptions are signalling: IEEE_UNDERFLOW_FLAG IEEE_DENORMAL
Note: The following floating-point exceptions are signalling: IEEE_UNDERFLOW_FLAG IEEE_DENORMAL
Note: The following floating-point exceptions are signalling: IEEE_UNDERFLOW_FLAG IEEE_DENORMAL
Note: The following floating-point exceptions are signalling: IEEE_UNDERFLOW_FLAG IEEE_DENORMAL
Note: The following floating-point exceptions are signalling: IEEE_UNDERFLOW_FLAG IEEE_DENORMAL
Note: The following floating-point exceptions are signalling: IEEE_UNDERFLOW_FLAG IEEE_DENORMAL
Note: The following floating-point exceptions are signalling: IEEE_UNDERFLOW_FLAG IEEE_DENORMAL
Note: The following floating-point exceptions are signalling: IEEE_UNDERFLOW_FLAG IEEE_DENORMAL
Note: The following floating-point exceptions are signalling: IEEE_UNDERFLOW_FLAG IEEE_DENORMAL
Note: The following floating-point exceptions are signalling: IEEE_UNDERFLOW_FLAG IEEE_DENORMAL
Note: The following floating-point exceptions are signalling: IEEE_UNDERFLOW_FLAG IEEE_DENORMAL
