
     Program PWSCF v.7.5 starts on 20Jun2026 at 13:36:54 

     This program is part of the open-source Quantum ESPRESSO suite
     for quantum simulation of materials; please cite
         "P. Giannozzi et al., J. Phys.:Condens. Matter 21 395502 (2009);
         "P. Giannozzi et al., J. Phys.:Condens. Matter 29 465901 (2017);
         "P. Giannozzi et al., J. Chem. Phys. 152 154105 (2020);
          URL http://www.quantum-espresso.org", 
     in publications or presentations arising from this work. More details at
     http://www.quantum-espresso.org/quote

     Parallel version (MPI), running on    24 processors

     MPI processes distributed on     1 nodes
     22929 MiB available memory on the printing compute node when the environment starts

     Waiting for input...
     Reading input from standard input

     Current dimensions of program PWSCF are:
     Max number of different atomic species (ntypx) = 10
     Max number of k-points (npk) =  40000
     Max angular momentum in pseudopotentials (lmaxx) =  4
     file Mo.pbe-spn-kjpaw_psl.1.0.0.UPF: wavefunction(s)  4S 4D renormalized
     file Se.pbe-dn-kjpaw_psl.1.0.0.UPF: wavefunction(s)  4S 4P 3D renormalized

     IMPORTANT: XC functional enforced from input :
     Exchange-correlation= VDW-DF2-B86R
                           (   1   4  26   0   2   0   0)
     Any further DFT definition will be discarded
     Please, verify this is what you really want


     R & G space division:  proc/nbgrp/npool/nimage =      24
     Subspace diagonalization in iterative solution of the eigenvalue problem:
     a serial algorithm will be used


     Parallelization info
     --------------------
     sticks:   dense  smooth     PW     G-vecs:    dense   smooth      PW
     Min          69      35     10                35537    12585    1924
     Max          70      36     11                35620    12648    1981
     Sum        1675     847    241               853823   302525   46513

     Using Slab Decomposition



     bravais-lattice index     =            4
     lattice parameter (alat)  =       6.1794  a.u.
     unit-cell volume          =    3124.5879 (a.u.)^3
     number of atoms/cell      =            6
     number of atomic types    =            2
     number of electrons       =        92.00
     number of Kohn-Sham states=           55
     kinetic-energy cutoff     =      80.0000  Ry
     charge density cutoff     =     640.0000  Ry
     scf convergence threshold =      1.0E-08
     mixing beta               =       0.3000
     number of iterations used =            8  local-TF  mixing
     Exchange-correlation= VDW-DF2-B86R
                           (   1   4  26   0   2   0   0)

     celldm(1)=   6.179404  celldm(2)=   0.000000  celldm(3)=  15.290520
     celldm(4)=   0.000000  celldm(5)=   0.000000  celldm(6)=   0.000000

     crystal axes: (cart. coord. in units of alat)
               a(1) = (   1.000000   0.000000   0.000000 )  
               a(2) = (  -0.500000   0.866025   0.000000 )  
               a(3) = (   0.000000   0.000000  15.290520 )  

     reciprocal axes: (cart. coord. in units 2 pi/alat)
               b(1) = (  1.000000  0.577350 -0.000000 )  
               b(2) = (  0.000000  1.154701  0.000000 )  
               b(3) = (  0.000000 -0.000000  0.065400 )  


     PseudoPot. # 1 for Mo read from file:
     ./pseudo/Mo.pbe-spn-kjpaw_psl.1.0.0.UPF
     MD5 check sum: 4396e0c640fcce5c25f020efccf1ab12
     Pseudo is Projector augmented-wave + core cor, Zval = 14.0
     Generated using &quot;atomic&quot; code by A. Dal Corso  v.6.3
     Shape of augmentation charge: PSQ
     Using radial grid of 1229 points,  6 beta functions with: 
                l(1) =   0
                l(2) =   0
                l(3) =   1
                l(4) =   1
                l(5) =   2
                l(6) =   2
     Q(r) pseudized with 0 coefficients 


     PseudoPot. # 2 for Se read from file:
     ./pseudo/Se.pbe-dn-kjpaw_psl.1.0.0.UPF
     MD5 check sum: ac240dd2bae32a30e0bf3a38df9c8785
     Pseudo is Projector augmented-wave + core cor, Zval = 16.0
     Generated using &quot;atomic&quot; code by A. Dal Corso  v.6.3
     Shape of augmentation charge: PSQ
     Using radial grid of 1211 points,  6 beta functions with: 
                l(1) =   0
                l(2) =   0
                l(3) =   1
                l(4) =   1
                l(5) =   2
                l(6) =   2
     Q(r) pseudized with 0 coefficients 


     atomic species   valence    mass     pseudopotential
     Mo               14.00    95.96000     Mo( 1.00)
     Se               16.00    78.96000     Se( 1.00)

      6 Sym. Ops. (no inversion) found



   Cartesian axes

     site n.     atom                  positions (alat units)
         1        Se     tau(   1) = (  -0.0000005   0.5773506   6.1238532  )
         2        Mo     tau(   2) = (   0.0000000   0.0000000   6.6502752  )
         3        Se     tau(   3) = (   0.5000005   0.2886748   7.1775994  )
         4        Se     tau(   4) = (  -0.0000005   0.5773506  10.3753364  )
         5        Mo     tau(   5) = (   0.5000005   0.2886748  10.9025229  )
         6        Se     tau(   6) = (   0.0000000   0.0000000  11.4296636  )

     number of k points=    30  Methfessel-Paxton smearing, width (Ry)=  0.0200
                       cart. coord. in units 2pi/alat
        k(    1) = (   0.0000000   0.0000000   0.0000000), wk =   0.0078125
        k(    2) = (   0.0000000   0.0721688   0.0000000), wk =   0.0468750
        k(    3) = (   0.0000000   0.1443376   0.0000000), wk =   0.0468750
        k(    4) = (   0.0000000   0.2165064   0.0000000), wk =   0.0468750
        k(    5) = (   0.0000000   0.2886751   0.0000000), wk =   0.0468750
        k(    6) = (   0.0000000   0.3608439   0.0000000), wk =   0.0468750
        k(    7) = (   0.0000000   0.4330127   0.0000000), wk =   0.0468750
        k(    8) = (   0.0000000   0.5051815   0.0000000), wk =   0.0468750
        k(    9) = (   0.0000000  -0.5773503   0.0000000), wk =   0.0234375
        k(   10) = (   0.0625000   0.1082532   0.0000000), wk =   0.0468750
        k(   11) = (   0.0625000   0.1804220   0.0000000), wk =   0.0937500
        k(   12) = (   0.0625000   0.2525907   0.0000000), wk =   0.0937500
        k(   13) = (   0.0625000   0.3247595   0.0000000), wk =   0.0937500
        k(   14) = (   0.0625000   0.3969283   0.0000000), wk =   0.0937500
        k(   15) = (   0.0625000   0.4690971   0.0000000), wk =   0.0937500
        k(   16) = (   0.0625000   0.5412659   0.0000000), wk =   0.0937500
        k(   17) = (   0.1250000   0.2165064   0.0000000), wk =   0.0468750
        k(   18) = (   0.1250000   0.2886751   0.0000000), wk =   0.0937500
        k(   19) = (   0.1250000   0.3608439   0.0000000), wk =   0.0937500
        k(   20) = (   0.1250000   0.4330127   0.0000000), wk =   0.0937500
        k(   21) = (   0.1250000   0.5051815   0.0000000), wk =   0.0937500
        k(   22) = (   0.1250000   0.5773503   0.0000000), wk =   0.0468750
        k(   23) = (   0.1875000   0.3247595   0.0000000), wk =   0.0468750
        k(   24) = (   0.1875000   0.3969283   0.0000000), wk =   0.0937500
        k(   25) = (   0.1875000   0.4690971   0.0000000), wk =   0.0937500
        k(   26) = (   0.1875000   0.5412659   0.0000000), wk =   0.0937500
        k(   27) = (   0.2500000   0.4330127   0.0000000), wk =   0.0468750
        k(   28) = (   0.2500000   0.5051815   0.0000000), wk =   0.0937500
        k(   29) = (   0.2500000   0.5773503   0.0000000), wk =   0.0468750
        k(   30) = (   0.3125000   0.5412659   0.0000000), wk =   0.0468750

     Dense  grid:   853823 G-vectors     FFT dimensions: (  50,  50, 768)

     Smooth grid:   302525 G-vectors     FFT dimensions: (  36,  36, 540)

     Estimated max dynamical RAM per process >     171.88 MB

     Estimated total dynamical RAM >       4.03 GB

     Initial potential from superposition of free atoms

     starting charge      91.9979, renormalised to      92.0000

     negative rho (up, down):  1.716E-04 0.000E+00


     %%%%%%%%%%%%%%%%%%%%%%%%%%%%%%%%%%%%%%%%%%%%%%%%%%%%%%%%%%%%%%%%%%%%%%%%
     %                                                                      %
     % You are using vdW-DF, which was implemented by the Thonhauser group. %
     % Please cite the following two papers that made this development      %
     % possible and the two reviews that describe the various versions:     %
     %                                                                      %
     %   T. Thonhauser et al., PRL 115, 136402 (2015).                      %
     %   T. Thonhauser et al., PRB 76, 125112 (2007).                       %
     %   K. Berland et al., Rep. Prog. Phys. 78, 066501 (2015).             %
     %   D.C. Langreth et al., J. Phys.: Condens. Matter 21, 084203 (2009). %
     %                                                                      %
     % If you are calculating stress with vdW-DF, please also cite:         %
     %                                                                      %
     %   R. Sabatini et al., J. Phys.: Condens. Matter 24, 424209 (2012).   %
     %                                                                      %
     %%%%%%%%%%%%%%%%%%%%%%%%%%%%%%%%%%%%%%%%%%%%%%%%%%%%%%%%%%%%%%%%%%%%%%%%

     %%%%%%%%%%%%%%%%%%%%%%%%%%%%%%%%%%%%%%%%%%%%%%%%%%%%%%%%%%%%%%%%%%%%%%%%
     %                                                                      %
     %  vdW-DF NEWS:                                                        %
     %                                                                      %
     %  * vdW-DF3 is now available. DOI: 10.1021/acs.jctc.0c00471           %
     %    use with input_dft = 'vdW-DF3-opt1' or 'vdW-DF3-opt2'             %
     %                                                                      %
     %  * Unscreened and range-separated hybrid vdW-DF-cx functionals       %
     %    DOI: 10.1063/1.4986522 and 10.1088/1361-648X/ac2ad2               %
     %    use with input_dft = 'vdW-DF-cx0'    and 'vdW-DF-ahcx'            %
     %  * Unscreened and range-separated hybrid vdW-DF2-b86r functionals    %
     %    DOI: 10.1063/1.4986522 and DOI: 10.1103/PhysRevX.12.041003        %
     %    use with input_dft = 'vdW-DF2-br0' and 'vdW-DF2-ahbr'             %
     %                                                                      %
     %%%%%%%%%%%%%%%%%%%%%%%%%%%%%%%%%%%%%%%%%%%%%%%%%%%%%%%%%%%%%%%%%%%%%%%%


     Starting wfcs are   56 randomized atomic wfcs
     Checking if some PAW data can be deallocated... 

     total cpu time spent up to now is       11.9 secs

     per-process dynamical memory:    79.7 Mb

     Self-consistent Calculation

     iteration #  1     ecut=    80.00 Ry     beta= 0.30
     Davidson diagonalization with overlap
     ethr =  1.00E-02,  avg # of iterations =  4.4

     Threshold (ethr) on eigenvalues was too large:
     Diagonalizing with lowered threshold

     Davidson diagonalization with overlap
     ethr =  4.49E-04,  avg # of iterations =  2.0

     negative rho (up, down):  5.102E-05 0.000E+00

     total cpu time spent up to now is       49.8 secs

     total energy              =   -2326.96274925 Ry
     estimated scf accuracy    <       0.46095486 Ry

     iteration #  2     ecut=    80.00 Ry     beta= 0.30
     Davidson diagonalization with overlap
     ethr =  5.01E-04,  avg # of iterations =  1.3

     negative rho (up, down):  1.656E-05 0.000E+00

     total cpu time spent up to now is       65.8 secs

     total energy              =   -2326.91588314 Ry
     estimated scf accuracy    <       0.24488896 Ry

     iteration #  3     ecut=    80.00 Ry     beta= 0.30
     Davidson diagonalization with overlap
     ethr =  2.66E-04,  avg # of iterations =  4.7

     negative rho (up, down):  3.005E-06 0.000E+00

     total cpu time spent up to now is       84.6 secs

     total energy              =   -2326.92279099 Ry
     estimated scf accuracy    <       0.03236100 Ry

     iteration #  4     ecut=    80.00 Ry     beta= 0.30
     Davidson diagonalization with overlap
     ethr =  3.52E-05,  avg # of iterations =  8.4

     negative rho (up, down):  1.389E-06 0.000E+00

     total cpu time spent up to now is      105.8 secs

     total energy              =   -2326.92293180 Ry
     estimated scf accuracy    <       0.01064707 Ry

     iteration #  5     ecut=    80.00 Ry     beta= 0.30
     Davidson diagonalization with overlap
     ethr =  1.16E-05,  avg # of iterations =  3.8

     negative rho (up, down):  6.862E-07 0.000E+00

     total cpu time spent up to now is      126.0 secs

     total energy              =   -2326.92186093 Ry
     estimated scf accuracy    <       0.00463800 Ry

     iteration #  6     ecut=    80.00 Ry     beta= 0.30
     Davidson diagonalization with overlap
     c_bands:  1 eigenvalues not converged
     ethr =  5.04E-06,  avg # of iterations =  5.9

     negative rho (up, down):  2.109E-07 0.000E+00

     total cpu time spent up to now is      147.6 secs

     total energy              =   -2326.92186572 Ry
     estimated scf accuracy    <       0.00165970 Ry

     iteration #  7     ecut=    80.00 Ry     beta= 0.30
     Davidson diagonalization with overlap
     ethr =  1.80E-06,  avg # of iterations =  4.6

     negative rho (up, down):  1.839E-05 0.000E+00

     total cpu time spent up to now is      166.2 secs

     total energy              =   -2326.92163040 Ry
     estimated scf accuracy    <       0.00146541 Ry

     iteration #  8     ecut=    80.00 Ry     beta= 0.30
     Davidson diagonalization with overlap
     c_bands:  1 eigenvalues not converged
     c_bands:  1 eigenvalues not converged
     c_bands:  1 eigenvalues not converged
     ethr =  1.59E-06,  avg # of iterations =  8.1

     negative rho (up, down):  2.655E-05 0.000E+00

     total cpu time spent up to now is      185.9 secs

     total energy              =   -2326.92163460 Ry
     estimated scf accuracy    <       0.00072828 Ry

     iteration #  9     ecut=    80.00 Ry     beta= 0.30
     Davidson diagonalization with overlap
     ethr =  7.92E-07,  avg # of iterations =  3.0

     negative rho (up, down):  2.428E-03 0.000E+00

     total cpu time spent up to now is      203.6 secs

     total energy              =   -2326.92173801 Ry
     estimated scf accuracy    <       0.00052535 Ry

     iteration # 10     ecut=    80.00 Ry     beta= 0.30
     Davidson diagonalization with overlap
     ethr =  5.71E-07,  avg # of iterations =  7.1

     negative rho (up, down):  4.190E-03 0.000E+00

     total cpu time spent up to now is      222.5 secs

     total energy              =   -2326.92169257 Ry
     estimated scf accuracy    <       0.00042417 Ry

     iteration # 11     ecut=    80.00 Ry     beta= 0.30
     Davidson diagonalization with overlap
     ethr =  4.61E-07,  avg # of iterations =  3.8

     negative rho (up, down):  4.133E-03 0.000E+00

     total cpu time spent up to now is      241.6 secs

     total energy              =   -2326.92167112 Ry
     estimated scf accuracy    <       0.00034229 Ry

     iteration # 12     ecut=    80.00 Ry     beta= 0.30
     Davidson diagonalization with overlap
     ethr =  3.72E-07,  avg # of iterations =  1.0

     negative rho (up, down):  4.310E-03 0.000E+00

     total cpu time spent up to now is      256.8 secs

     total energy              =   -2326.92150013 Ry
     estimated scf accuracy    <       0.00030808 Ry

     iteration # 13     ecut=    80.00 Ry     beta= 0.30
     Davidson diagonalization with overlap
     ethr =  3.35E-07,  avg # of iterations =  5.2

     negative rho (up, down):  4.688E-03 0.000E+00

     total cpu time spent up to now is      275.8 secs

     total energy              =   -2326.92147011 Ry
     estimated scf accuracy    <       0.00014107 Ry

     iteration # 14     ecut=    80.00 Ry     beta= 0.30
     Davidson diagonalization with overlap
     ethr =  1.53E-07,  avg # of iterations =  1.8

     negative rho (up, down):  2.829E-03 0.000E+00

     total cpu time spent up to now is      293.1 secs

     total energy              =   -2326.92158743 Ry
     estimated scf accuracy    <       0.00008341 Ry

     iteration # 15     ecut=    80.00 Ry     beta= 0.30
     Davidson diagonalization with overlap
     ethr =  9.07E-08,  avg # of iterations =  5.9

     negative rho (up, down):  2.190E-03 0.000E+00

     total cpu time spent up to now is      311.2 secs

     total energy              =   -2326.92160388 Ry
     estimated scf accuracy    <       0.00003866 Ry

     iteration # 16     ecut=    80.00 Ry     beta= 0.30
     Davidson diagonalization with overlap
     ethr =  4.20E-08,  avg # of iterations =  1.5

     negative rho (up, down):  9.806E-04 0.000E+00

     total cpu time spent up to now is      327.7 secs

     total energy              =   -2326.92163945 Ry
     estimated scf accuracy    <       0.00002236 Ry

     iteration # 17     ecut=    80.00 Ry     beta= 0.30
     Davidson diagonalization with overlap
     ethr =  2.43E-08,  avg # of iterations =  4.3

     negative rho (up, down):  4.389E-04 0.000E+00

     total cpu time spent up to now is      347.0 secs

     total energy              =   -2326.92164664 Ry
     estimated scf accuracy    <       0.00000745 Ry

     iteration # 18     ecut=    80.00 Ry     beta= 0.30
     Davidson diagonalization with overlap
     ethr =  8.10E-09,  avg # of iterations =  7.7

     negative rho (up, down):  2.694E-04 0.000E+00

     total cpu time spent up to now is      369.9 secs

     total energy              =   -2326.92164917 Ry
     estimated scf accuracy    <       0.00000048 Ry

     iteration # 19     ecut=    80.00 Ry     beta= 0.30
     Davidson diagonalization with overlap
     ethr =  5.24E-10,  avg # of iterations =  2.3

     negative rho (up, down):  2.441E-04 0.000E+00

     total cpu time spent up to now is      390.3 secs

     total energy              =   -2326.92164977 Ry
     estimated scf accuracy    <       0.00000024 Ry

     iteration # 20     ecut=    80.00 Ry     beta= 0.30
     Davidson diagonalization with overlap
     ethr =  2.58E-10,  avg # of iterations =  2.1

     negative rho (up, down):  1.989E-04 0.000E+00

     total cpu time spent up to now is      409.6 secs

     total energy              =   -2326.92164944 Ry
     estimated scf accuracy    <       0.00000009 Ry

     iteration # 21     ecut=    80.00 Ry     beta= 0.30
     Davidson diagonalization with overlap
     ethr =  9.96E-11,  avg # of iterations =  2.4

     negative rho (up, down):  2.047E-04 0.000E+00

     total cpu time spent up to now is      428.9 secs

     total energy              =   -2326.92164917 Ry
     estimated scf accuracy    <       0.00000003 Ry

     iteration # 22     ecut=    80.00 Ry     beta= 0.30
     Davidson diagonalization with overlap
     ethr =  2.79E-11,  avg # of iterations =  2.3

     negative rho (up, down):  2.199E-04 0.000E+00

     total cpu time spent up to now is      447.1 secs

     total energy              =   -2326.92164895 Ry
     estimated scf accuracy    <       0.00000001 Ry

     iteration # 23     ecut=    80.00 Ry     beta= 0.30
     Davidson diagonalization with overlap
     ethr =  1.50E-11,  avg # of iterations =  2.6

     negative rho (up, down):  2.004E-04 0.000E+00

     total cpu time spent up to now is      465.8 secs

     End of self-consistent calculation

          k = 0.0000 0.0000 0.0000 ( 37787 PWs)   bands (ev):

   -61.8956 -61.8947 -48.2906 -48.2906 -48.2903 -48.2903 -48.2891 -48.2891
   -48.2889 -48.2889 -48.2451 -48.2451 -48.2447 -48.2447 -48.2435 -48.2435
   -48.2434 -48.2434 -48.2264 -48.2259 -48.2249 -48.2246 -36.0140 -36.0129
   -35.8987 -35.8987 -35.8974 -35.8973 -15.2936 -15.2901 -14.4754 -14.4739
    -6.4366  -6.4336  -3.3601  -3.3600  -3.3539  -3.3539  -3.3355  -3.3354
    -1.5894  -1.5881  -1.0637  -1.0637  -1.0608  -1.0608   0.2295   0.2295
     0.2323   0.2323   2.9480   2.9480   2.9501   2.9502   3.2294

          k = 0.0000 0.0722 0.0000 ( 37755 PWs)   bands (ev):

   -61.8946 -61.8937 -48.2906 -48.2905 -48.2903 -48.2901 -48.2890 -48.2889
   -48.2888 -48.2887 -48.2451 -48.2451 -48.2448 -48.2447 -48.2436 -48.2435
   -48.2434 -48.2434 -48.2263 -48.2258 -48.2248 -48.2246 -36.0118 -36.0107
   -35.9093 -35.9080 -35.9011 -35.8998 -15.2368 -15.2333 -14.4459 -14.4443
    -6.3589  -6.3558  -3.8325  -3.8286  -3.3281  -3.3219  -2.9325  -2.9304
    -1.6274  -1.6267  -1.2534  -1.2505  -1.2107  -1.2076   0.1220   0.1241
     0.3425   0.3450   2.6265   2.6302   2.8994   2.9014   3.3361

          k = 0.0000 0.1443 0.0000 ( 37697 PWs)   bands (ev):

   -61.8919 -61.8910 -48.2906 -48.2903 -48.2899 -48.2895 -48.2890 -48.2889
   -48.2883 -48.2881 -48.2454 -48.2452 -48.2449 -48.2448 -48.2438 -48.2437
   -48.2435 -48.2434 -48.2261 -48.2256 -48.2245 -48.2243 -36.0054 -36.0043
   -35.9394 -35.9381 -35.9081 -35.9067 -15.0704 -15.0670 -14.3598 -14.3580
    -6.1336  -6.1306  -4.3183  -4.3140  -3.2528  -3.2467  -2.7131  -2.7116
    -2.0767  -2.0745  -1.4982  -1.4948  -1.4549  -1.4545   0.0037   0.0047
     0.5331   0.5350   2.0327   2.0359   2.7997   2.8015   3.5954

          k = 0.0000 0.2165 0.0000 ( 37653 PWs)   bands (ev):

   -61.8877 -61.8868 -48.2905 -48.2903 -48.2891 -48.2889 -48.2889 -48.2888
   -48.2875 -48.2873 -48.2457 -48.2453 -48.2451 -48.2448 -48.2442 -48.2438
   -48.2437 -48.2434 -48.2257 -48.2252 -48.2242 -48.2239 -35.9962 -35.9951
   -35.9839 -35.9825 -35.9184 -35.9171 -14.8075 -14.8042 -14.2234 -14.2214
    -5.7930  -5.7899  -4.7478  -4.7432  -3.2571  -3.2541  -3.2011  -3.1952
    -2.4341  -2.4334  -1.7219  -1.7182  -1.5559  -1.5555  -0.0272  -0.0269
     0.6396   0.6409   1.6713   1.6740   2.7342   2.7360   3.9641

          k = 0.0000 0.2887 0.0000 ( 37721 PWs)   bands (ev):

   -61.8829 -61.8820 -48.2906 -48.2902 -48.2890 -48.2888 -48.2882 -48.2879
   -48.2866 -48.2864 -48.2461 -48.2455 -48.2452 -48.2449 -48.2446 -48.2440
   -48.2438 -48.2435 -48.2252 -48.2247 -48.2237 -48.2235 -36.0369 -36.0355
   -35.9842 -35.9832 -35.9306 -35.9293 -14.4743 -14.4710 -14.0455 -14.0433
    -5.4815  -5.4780  -4.9877  -4.9837  -4.2791  -4.2757  -3.2555  -3.2499
    -2.6195  -2.6195  -1.8091  -1.8084  -1.7655  -1.7615   0.0540   0.0545
     0.6446   0.6457   1.7780   1.7807   2.7354   2.7373   4.4347

          k = 0.0000 0.3608 0.0000 ( 37749 PWs)   bands (ev):

   -61.8780 -61.8771 -48.2906 -48.2901 -48.2891 -48.2887 -48.2873 -48.2870
   -48.2857 -48.2856 -48.2465 -48.2456 -48.2454 -48.2450 -48.2449 -48.2441
   -48.2440 -48.2435 -48.2248 -48.2243 -48.2233 -48.2230 -36.0889 -36.0875
   -35.9729 -35.9719 -35.9428 -35.9414 -14.1260 -14.1228 -13.8261 -13.8236
    -5.5983  -5.5941  -5.2365  -5.2334  -4.7235  -4.7204  -3.4041  -3.3987
    -2.9797  -2.9796  -2.0744  -2.0736  -1.6603  -1.6563   0.3135   0.3139
     0.6216   0.6228   2.1968   2.1996   2.7720   2.7740   4.9786

          k = 0.0000 0.4330 0.0000 ( 37785 PWs)   bands (ev):

   -61.8739 -61.8730 -48.2907 -48.2900 -48.2891 -48.2886 -48.2865 -48.2862
   -48.2849 -48.2848 -48.2469 -48.2457 -48.2455 -48.2454 -48.2450 -48.2443
   -48.2441 -48.2436 -48.2244 -48.2239 -48.2229 -48.2226 -36.1326 -36.1312
   -35.9633 -35.9623 -35.9531 -35.9517 -13.8621 -13.8587 -13.5472 -13.5446
    -6.1988  -6.1949  -5.5764  -5.5732  -4.5338  -4.5313  -3.5633  -3.5580
    -3.2342  -3.2334  -2.2478  -2.2471  -1.5266  -1.5230   0.6361   0.6378
     0.6785   0.6786   2.7123   2.7152   2.8085   2.8108   5.1651

          k = 0.0000 0.5052 0.0000 ( 37822 PWs)   bands (ev):

   -61.8712 -61.8703 -48.2907 -48.2900 -48.2892 -48.2885 -48.2860 -48.2857
   -48.2844 -48.2843 -48.2471 -48.2458 -48.2456 -48.2456 -48.2450 -48.2443
   -48.2442 -48.2436 -48.2241 -48.2236 -48.2226 -48.2224 -36.1617 -36.1602
   -35.9599 -35.9586 -35.9568 -35.9558 -13.7169 -13.7133 -13.2853 -13.2828
    -6.7563  -6.7525  -5.5976  -5.5951  -4.7009  -4.6985  -3.6754  -3.6701
    -3.1141  -3.1127  -2.3760  -2.3754  -1.4394  -1.4361   0.6853   0.6875
     1.0197   1.0198   2.8310   2.8335   3.1594   3.1620   4.6772

          k = 0.0000-0.5774 0.0000 ( 37832 PWs)   bands (ev):

   -61.8702 -61.8693 -48.2907 -48.2900 -48.2892 -48.2885 -48.2858 -48.2855
   -48.2842 -48.2841 -48.2472 -48.2458 -48.2457 -48.2457 -48.2451 -48.2444
   -48.2442 -48.2437 -48.2240 -48.2236 -48.2225 -48.2223 -36.1719 -36.1704
   -35.9623 -35.9610 -35.9546 -35.9536 -13.6694 -13.6658 -13.1787 -13.1762
    -6.9615  -6.9577  -5.5680  -5.5660  -4.8437  -4.8411  -3.7150  -3.7098
    -2.9855  -2.9839  -2.4444  -2.4439  -1.4117  -1.4086   0.7128   0.7153
     1.1665   1.1666   2.8383   2.8408   3.3796   3.3817   4.3507

          k = 0.0625 0.1083 0.0000 ( 37709 PWs)   bands (ev):

   -61.8928 -61.8918 -48.2906 -48.2903 -48.2901 -48.2898 -48.2890 -48.2888
   -48.2885 -48.2883 -48.2453 -48.2452 -48.2448 -48.2448 -48.2438 -48.2436
   -48.2435 -48.2434 -48.2261 -48.2257 -48.2246 -48.2244 -36.0075 -36.0064
   -35.9294 -35.9280 -35.9061 -35.9048 -15.1252 -15.1217 -14.3881 -14.3864
    -6.2069  -6.2039  -4.1894  -4.1851  -3.2816  -3.2755  -2.7335  -2.7319
    -1.8758  -1.8742  -1.4984  -1.4950  -1.3798  -1.3787   0.0641   0.0655
     0.4328   0.4348   2.2604   2.2640   2.7557   2.7576   3.5167

          k = 0.0625 0.1804 0.0000 ( 37703 PWs)   bands (ev):

   -61.8893 -61.8884 -48.2905 -48.2902 -48.2895 -48.2891 -48.2889 -48.2889
   -48.2879 -48.2877 -48.2456 -48.2453 -48.2450 -48.2448 -48.2441 -48.2437
   -48.2436 -48.2435 -48.2258 -48.2253 -48.2243 -48.2241 -35.9995 -35.9984
   -35.9660 -35.9646 -35.9156 -35.9142 -14.9101 -14.9067 -14.2770 -14.2751
    -5.9190  -5.9159  -4.6031  -4.5986  -3.2759  -3.2701  -2.8102  -2.8080
    -2.4529  -2.4507  -1.7531  -1.7500  -1.4116  -1.4111   0.0637   0.0643
     0.4336   0.4347   1.9406   1.9435   2.5818   2.5835   3.8251

          k = 0.0625 0.2526 0.0000 ( 37702 PWs)   bands (ev):

   -61.8848 -61.8839 -48.2905 -48.2902 -48.2889 -48.2888 -48.2886 -48.2883
   -48.2870 -48.2869 -48.2459 -48.2454 -48.2451 -48.2449 -48.2445 -48.2439
   -48.2437 -48.2435 -48.2254 -48.2249 -48.2239 -48.2236 -36.0137 -36.0123
   -35.9889 -35.9878 -35.9280 -35.9266 -14.6100 -14.6067 -14.1210 -14.1188
    -5.5515  -5.5483  -4.9473  -4.9428  -3.8350  -3.8312  -3.2217  -3.2170
    -2.5987  -2.5972  -1.9631  -1.9607  -1.4431  -1.4419  -0.0002   0.0000
     0.5136   0.5145   1.8330   1.8353   2.5532   2.5549   4.2431

          k = 0.0625 0.3248 0.0000 ( 37734 PWs)   bands (ev):

   -61.8800 -61.8791 -48.2905 -48.2901 -48.2890 -48.2886 -48.2877 -48.2874
   -48.2862 -48.2860 -48.2463 -48.2456 -48.2453 -48.2450 -48.2449 -48.2441
   -48.2439 -48.2436 -48.2250 -48.2245 -48.2234 -48.2232 -36.0646 -36.0632
   -35.9776 -35.9766 -35.9414 -35.9400 -14.2616 -14.2584 -13.9274 -13.9250
    -5.4445  -5.4403  -4.9235  -4.9205  -4.7792  -4.7755  -3.4612  -3.4567
    -2.7243  -2.7231  -2.2781  -2.2759  -1.4331  -1.4309   0.0504   0.0506
     0.6623   0.6630   1.9693   1.9713   2.6461   2.6483   4.7592

          k = 0.0625 0.3969 0.0000 ( 37770 PWs)   bands (ev):

   -61.8755 -61.8746 -48.2905 -48.2900 -48.2890 -48.2885 -48.2869 -48.2866
   -48.2853 -48.2852 -48.2467 -48.2457 -48.2454 -48.2452 -48.2450 -48.2443
   -48.2440 -48.2436 -48.2245 -48.2241 -48.2230 -48.2228 -36.1114 -36.1099
   -35.9672 -35.9661 -35.9536 -35.9523 -13.9454 -13.9422 -13.6832 -13.6806
    -5.8146  -5.8105  -5.4803  -5.4769  -4.5580  -4.5551  -3.7063  -3.7022
    -2.9885  -2.9871  -2.4962  -2.4941  -1.3651  -1.3627   0.2471   0.2475
     0.8192   0.8201   2.2556   2.2575   2.8187   2.8214   5.2918

          k = 0.0625 0.4691 0.0000 ( 37798 PWs)   bands (ev):

   -61.8721 -61.8712 -48.2906 -48.2899 -48.2890 -48.2884 -48.2863 -48.2860
   -48.2847 -48.2846 -48.2470 -48.2459 -48.2455 -48.2455 -48.2451 -48.2444
   -48.2441 -48.2437 -48.2242 -48.2237 -48.2227 -48.2225 -36.1469 -36.1454
   -35.9635 -35.9621 -35.9587 -35.9577 -13.7480 -13.7445 -13.3976 -13.3950
    -6.4695  -6.4657  -5.5867  -5.5837  -4.5524  -4.5500  -3.8001  -3.7956
    -3.1034  -3.1017  -2.6015  -2.5999  -1.3252  -1.3229   0.4886   0.4898
     1.0014   1.0022   2.4798   2.4818   3.0760   3.0788   5.1489

          k = 0.0625 0.5413 0.0000 ( 37791 PWs)   bands (ev):

   -61.8702 -61.8693 -48.2906 -48.2898 -48.2891 -48.2883 -48.2860 -48.2857
   -48.2843 -48.2843 -48.2471 -48.2460 -48.2457 -48.2455 -48.2451 -48.2445
   -48.2441 -48.2437 -48.2240 -48.2236 -48.2225 -48.2223 -36.1660 -36.1645
   -35.9684 -35.9670 -35.9546 -35.9536 -13.6548 -13.6512 -13.2024 -13.1999
    -6.8564  -6.8526  -5.5691  -5.5668  -4.7623  -4.7597  -3.8177  -3.8129
    -2.9903  -2.9885  -2.6738  -2.6724  -1.3263  -1.3241   0.6686   0.6707
     1.1312   1.1316   2.5770   2.5792   3.3192   3.3215   4.6472

          k = 0.1250 0.2165 0.0000 ( 37731 PWs)   bands (ev):

   -61.8855 -61.8846 -48.2905 -48.2901 -48.2889 -48.2888 -48.2887 -48.2885
   -48.2872 -48.2871 -48.2459 -48.2453 -48.2451 -48.2449 -48.2444 -48.2438
   -48.2436 -48.2436 -48.2255 -48.2250 -48.2240 -48.2237 -36.0038 -36.0025
   -35.9907 -35.9896 -35.9285 -35.9272 -14.6565 -14.6532 -14.1468 -14.1447
    -5.5822  -5.5791  -4.9150  -4.9103  -3.6933  -3.6888  -3.0086  -3.0065
    -2.8632  -2.8590  -1.9308  -1.9288  -1.3216  -1.3209   0.0540   0.0544
     0.3151   0.3156   2.1662   2.1693   2.1858   2.1873   4.1808

          k = 0.1250 0.2887 0.0000 ( 37723 PWs)   bands (ev):

   -61.8810 -61.8801 -48.2904 -48.2899 -48.2888 -48.2885 -48.2881 -48.2878
   -48.2865 -48.2863 -48.2463 -48.2455 -48.2452 -48.2451 -48.2448 -48.2439
   -48.2438 -48.2437 -48.2251 -48.2246 -48.2236 -48.2233 -36.0474 -36.0460
   -35.9804 -35.9793 -35.9445 -35.9431 -14.3341 -14.3309 -13.9796 -13.9772
    -5.2684  -5.2644  -5.0793  -5.0757  -4.4612  -4.4574  -3.4611  -3.4580
    -2.9529  -2.9492  -2.1987  -2.1973  -1.1951  -1.1940  -0.1586  -0.1584
     0.6077   0.6082   1.8746   1.8756   2.4768   2.4801   4.6480

          k = 0.1250 0.3608 0.0000 ( 37761 PWs)   bands (ev):

   -61.8765 -61.8756 -48.2903 -48.2898 -48.2887 -48.2883 -48.2873 -48.2870
   -48.2858 -48.2856 -48.2466 -48.2457 -48.2453 -48.2451 -48.2451 -48.2442
   -48.2439 -48.2438 -48.2246 -48.2242 -48.2231 -48.2229 -36.0903 -36.0889
   -35.9705 -35.9695 -35.9602 -35.9589 -13.9939 -13.9908 -13.7787 -13.7760
    -5.4713  -5.4670  -5.2611  -5.2576  -4.6651  -4.6621  -3.8491  -3.8458
    -3.0522  -3.0491  -2.6289  -2.6275  -1.0643  -1.0629  -0.1233  -0.1232
     0.8901   0.8908   1.7927   1.7937   2.7862   2.7893   5.2024

          k = 0.1250 0.4330 0.0000 ( 37768 PWs)   bands (ev):

   -61.8727 -61.8718 -48.2902 -48.2896 -48.2887 -48.2881 -48.2867 -48.2864
   -48.2851 -48.2850 -48.2468 -48.2459 -48.2454 -48.2454 -48.2452 -48.2444
   -48.2439 -48.2438 -48.2243 -48.2238 -48.2228 -48.2225 -36.1263 -36.1248
   -35.9756 -35.9742 -35.9603 -35.9593 -13.7440 -13.7407 -13.5155 -13.5128
    -6.0610  -6.0572  -5.5201  -5.5166  -4.3944  -4.3918  -4.0764  -4.0727
    -3.1637  -3.1611  -2.9776  -2.9758  -1.0323  -1.0310   0.1200   0.1205
     1.0803   1.0814   1.9024   1.9037   3.0657   3.0686   5.6018

          k = 0.1250 0.5052 0.0000 ( 37794 PWs)   bands (ev):

   -61.8702 -61.8693 -48.2902 -48.2895 -48.2887 -48.2880 -48.2863 -48.2860
   -48.2847 -48.2846 -48.2470 -48.2461 -48.2455 -48.2454 -48.2452 -48.2446
   -48.2439 -48.2439 -48.2240 -48.2236 -48.2225 -48.2223 -36.1502 -36.1487
   -35.9847 -35.9833 -35.9546 -35.9536 -13.6121 -13.6086 -13.2666 -13.2639
    -6.5642  -6.5605  -5.5533  -5.5504  -4.5671  -4.5645  -4.0281  -4.0242
    -3.2451  -3.2428  -3.0415  -3.0396  -1.0895  -1.0885   0.4577   0.4589
     1.1296   1.1307   2.0690   2.0706   3.2529   3.2554   5.2857

          k = 0.1250 0.5774 0.0000 ( 37780 PWs)   bands (ev):

   -61.8693 -61.8684 -48.2902 -48.2894 -48.2887 -48.2880 -48.2861 -48.2859
   -48.2845 -48.2845 -48.2471 -48.2462 -48.2456 -48.2454 -48.2452 -48.2447
   -48.2439 -48.2439 -48.2240 -48.2235 -48.2224 -48.2222 -36.1586 -36.1571
   -35.9879 -35.9865 -35.9526 -35.9516 -13.5684 -13.5648 -13.1672 -13.1646
    -6.7478  -6.7440  -5.5453  -5.5428  -4.6817  -4.6790  -4.0245  -4.0205
    -3.2743  -3.2721  -2.9961  -2.9942  -1.1285  -1.1276   0.6592   0.6610
     1.0812   1.0819   2.1520   2.1537   3.3177   3.3198   5.0250

          k = 0.1875 0.3248 0.0000 ( 37725 PWs)   bands (ev):

   -61.8769 -61.8760 -48.2901 -48.2896 -48.2886 -48.2882 -48.2875 -48.2872
   -48.2860 -48.2858 -48.2466 -48.2456 -48.2454 -48.2452 -48.2451 -48.2440
   -48.2439 -48.2439 -48.2247 -48.2242 -48.2232 -48.2229 -36.0807 -36.0793
   -35.9726 -35.9715 -35.9638 -35.9625 -14.0093 -14.0062 -13.8133 -13.8107
    -5.3390  -5.3345  -5.0924  -5.0886  -4.7541  -4.7512  -3.8521  -3.8496
    -3.3330  -3.3290  -2.5096  -2.5085  -0.8958  -0.8946  -0.3032  -0.3031
     0.8885   0.8891   1.6057   1.6063   2.7754   2.7788   5.1609

          k = 0.1875 0.3969 0.0000 ( 37753 PWs)   bands (ev):

   -61.8731 -61.8722 -48.2899 -48.2893 -48.2884 -48.2878 -48.2871 -48.2868
   -48.2855 -48.2853 -48.2468 -48.2458 -48.2455 -48.2453 -48.2452 -48.2443
   -48.2441 -48.2438 -48.2243 -48.2238 -48.2228 -48.2226 -36.1095 -36.1081
   -35.9879 -35.9865 -35.9611 -35.9601 -13.7063 -13.7032 -13.6159 -13.6131
    -5.6921  -5.6883  -5.4428  -5.4387  -4.3535  -4.3508  -4.2041  -4.2014
    -3.6587  -3.6552  -2.9084  -2.9071  -0.6895  -0.6886  -0.2352  -0.2352
     1.1097   1.1106   1.5251   1.5257   3.0680   3.0710   5.7200

          k = 0.1875 0.4691 0.0000 ( 37759 PWs)   bands (ev):

   -61.8702 -61.8693 -48.2897 -48.2890 -48.2882 -48.2875 -48.2867 -48.2864
   -48.2852 -48.2850 -48.2469 -48.2461 -48.2456 -48.2454 -48.2452 -48.2446
   -48.2441 -48.2438 -48.2240 -48.2236 -48.2225 -48.2223 -36.1304 -36.1289
   -36.0049 -36.0035 -35.9546 -35.9536 -13.5459 -13.5426 -13.3536 -13.3508
    -6.1764  -6.1727  -5.5101  -5.5065  -4.4261  -4.4231  -4.1174  -4.1146
    -3.8842  -3.8814  -3.1784  -3.1768  -0.7410  -0.7406   0.1064   0.1070
     1.1498   1.1509   1.6761   1.6768   3.2320   3.2346   5.7955

          k = 0.1875 0.5413 0.0000 ( 37793 PWs)   bands (ev):

   -61.8686 -61.8677 -48.2896 -48.2889 -48.2881 -48.2874 -48.2866 -48.2863
   -48.2850 -48.2849 -48.2469 -48.2463 -48.2456 -48.2455 -48.2452 -48.2448
   -48.2442 -48.2438 -48.2239 -48.2235 -48.2224 -48.2222 -36.1413 -36.1399
   -36.0146 -36.0132 -35.9510 -35.9500 -13.4683 -13.4649 -13.1841 -13.1813
    -6.4537  -6.4500  -5.5386  -5.5353  -4.5196  -4.5166  -4.1601  -4.1571
    -3.9590  -3.9567  -3.1996  -3.1977  -0.8289  -0.8286   0.4732   0.4740
     1.0023   1.0035   1.8867   1.8877   3.2280   3.2301   5.6595

          k = 0.2500 0.4330 0.0000 ( 37711 PWs)   bands (ev):

   -61.8702 -61.8693 -48.2894 -48.2888 -48.2879 -48.2873 -48.2870 -48.2866
   -48.2854 -48.2852 -48.2468 -48.2460 -48.2457 -48.2454 -48.2452 -48.2445
   -48.2443 -48.2438 -48.2240 -48.2236 -48.2225 -48.2223 -36.1200 -36.1185
   -36.0156 -36.0141 -35.9546 -35.9536 -13.4841 -13.4809 -13.4240 -13.4210
    -5.9559  -5.9521  -5.4785  -5.4745  -4.4076  -4.4051  -4.2476  -4.2443
    -4.0431  -4.0402  -3.2741  -3.2728  -0.3301  -0.3297  -0.3094  -0.3083
     1.1453   1.1462   1.5514   1.5515   3.2304   3.2331   6.0071

          k = 0.2500 0.5052 0.0000 ( 37776 PWs)   bands (ev):

   -61.8682 -61.8673 -48.2891 -48.2884 -48.2875 -48.2870 -48.2869 -48.2867
   -48.2854 -48.2852 -48.2468 -48.2462 -48.2459 -48.2453 -48.2452 -48.2448
   -48.2445 -48.2437 -48.2239 -48.2234 -48.2223 -48.2222 -36.1225 -36.1211
   -36.0386 -36.0372 -35.9502 -35.9492 -13.3744 -13.3711 -13.2370 -13.2340
    -6.1036  -6.0999  -5.5302  -5.5264  -4.6670  -4.6634  -4.3848  -4.3826
    -3.9693  -3.9670  -3.5120  -3.5104  -0.4325  -0.4324   0.0632   0.0637
     0.9654   0.9668   1.8428   1.8433   3.1580   3.1602   5.7884

          k = 0.2500 0.5774 0.0000 ( 37791 PWs)   bands (ev):

   -61.8676 -61.8667 -48.2889 -48.2882 -48.2874 -48.2870 -48.2867 -48.2867
   -48.2855 -48.2853 -48.2468 -48.2464 -48.2459 -48.2453 -48.2451 -48.2449
   -48.2445 -48.2437 -48.2238 -48.2234 -48.2223 -48.2221 -36.1220 -36.1205
   -36.0481 -36.0467 -35.9486 -35.9476 -13.3358 -13.3324 -13.1671 -13.1641
    -6.1465  -6.1429  -5.5604  -5.5567  -4.8199  -4.8163  -4.2051  -4.2029
    -4.1856  -4.1836  -3.5128  -3.5110  -0.4833  -0.4833   0.3219   0.3219
     0.7582   0.7601   2.0616   2.0624   3.0210   3.0228   5.6868

          k = 0.3125 0.5413 0.0000 ( 37789 PWs)   bands (ev):

   -61.8672 -61.8663 -48.2885 -48.2878 -48.2874 -48.2870 -48.2869 -48.2863
   -48.2858 -48.2856 -48.2466 -48.2464 -48.2461 -48.2452 -48.2451 -48.2448
   -48.2448 -48.2437 -48.2238 -48.2234 -48.2222 -48.2221 -36.1045 -36.1030
   -36.0706 -36.0692 -35.9478 -35.9468 -13.2564 -13.2530 -13.1945 -13.1914
    -5.8423  -5.8387  -5.5702  -5.5662  -5.2595  -5.2561  -4.2182  -4.2163
    -3.8800  -3.8781  -3.8776  -3.8766  -0.1460  -0.1455   0.0314   0.0316
     0.6585   0.6607   2.2696   2.2704   2.8338   2.8354   5.6186

     the Fermi energy is    -0.2950 ev

!    total energy              =   -2326.92164941 Ry
     total all-electron energy =    -35628.669478 Ry
     estimated scf accuracy    <          6.5E-09 Ry
     smearing contrib. (-TS)   =       0.00090297 Ry
     internal energy E=F+TS    =   -2326.92255238 Ry

     The total energy is F=E-TS. E is the sum of the following terms:
     one-electron contribution =  -16233.42105230 Ry
     hartree contribution      =    8104.94255848 Ry
     xc contribution           =    -152.42429129 Ry
     ewald contribution        =    6964.49471981 Ry
     one-center paw contrib.   =   -1010.51448708 Ry

     convergence has been achieved in  23 iterations

     Writing all to output data dir ./tmp/cleave_037/mose2_cleave_037.save/ :
     XML data file, charge density, pseudopotentials, collected wavefunctions

     init_run     :     11.39s CPU     11.75s WALL (       1 calls)
     electrons    :    440.02s CPU    453.93s WALL (       1 calls)

     Called by init_run:
     wfcinit      :      5.22s CPU      5.32s WALL (       1 calls)
     potinit      :      5.50s CPU      5.66s WALL (       1 calls)
     hinit0       :      0.05s CPU      0.06s WALL (       1 calls)

     Called by electrons:
     c_bands      :    366.08s CPU    374.88s WALL (      24 calls)
     sum_band     :     48.40s CPU     51.07s WALL (      24 calls)
     v_of_rho     :     14.57s CPU     15.47s WALL (      24 calls)
     newd         :      9.47s CPU     11.10s WALL (      24 calls)
     PAW_pot      :      1.50s CPU      1.54s WALL (      24 calls)
     mix_rho      :      5.65s CPU      5.76s WALL (      24 calls)
     vdW_kernel   :      5.06s CPU      5.18s WALL (       1 calls)

     Called by c_bands:
     init_us_2    :      1.59s CPU      1.61s WALL (    1470 calls)
     cegterg      :    353.80s CPU    362.22s WALL (     720 calls)

     Called by *egterg:
     cdiaghg      :      8.73s CPU      8.75s WALL (    3574 calls)
     h_psi        :    134.64s CPU    136.88s WALL (    3634 calls)
     s_psi        :     14.96s CPU     14.98s WALL (    3634 calls)
     g_psi        :      0.17s CPU      0.17s WALL (    2884 calls)

     Called by h_psi:
     h_psi:calbec :     46.44s CPU     47.76s WALL (    3634 calls)
     vloc_psi     :     72.52s CPU     73.42s WALL (    3634 calls)
                                        0.00s GPU  (    3634 calls)
     add_vuspsi   :     15.46s CPU     15.48s WALL (    3634 calls)

     General routines
     calbec       :     66.16s CPU     68.07s WALL (    4354 calls)
     fft          :      7.47s CPU      7.71s WALL (    1511 calls)
     ffts         :      2.22s CPU      2.25s WALL (    2754 calls)
     fftw         :     86.96s CPU     88.05s WALL (  218520 calls)
     interpolate  :      0.11s CPU      0.12s WALL (      24 calls)

     Parallel routines

     PWSCF        :   7m31.93s CPU   7m46.42s WALL


   This run was terminated on:  13:44:40  20Jun2026            

=------------------------------------------------------------------------------=
   JOB DONE.
=------------------------------------------------------------------------------=
Note: The following floating-point exceptions are signalling: IEEE_UNDERFLOW_FLAG IEEE_DENORMAL
Note: The following floating-point exceptions are signalling: IEEE_UNDERFLOW_FLAG IEEE_DENORMAL
Note: The following floating-point exceptions are signalling: IEEE_UNDERFLOW_FLAG IEEE_DENORMAL
Note: The following floating-point exceptions are signalling: IEEE_UNDERFLOW_FLAG IEEE_DENORMAL
Note: The following floating-point exceptions are signalling: IEEE_UNDERFLOW_FLAG IEEE_DENORMAL
Note: The following floating-point exceptions are signalling: IEEE_UNDERFLOW_FLAG IEEE_DENORMAL
Note: The following floating-point exceptions are signalling: IEEE_UNDERFLOW_FLAG IEEE_DENORMAL
Note: The following floating-point exceptions are signalling: IEEE_UNDERFLOW_FLAG IEEE_DENORMAL
Note: The following floating-point exceptions are signalling: IEEE_UNDERFLOW_FLAG IEEE_DENORMAL
Note: The following floating-point exceptions are signalling: IEEE_UNDERFLOW_FLAG IEEE_DENORMAL
Note: The following floating-point exceptions are signalling: IEEE_UNDERFLOW_FLAG IEEE_DENORMAL
Note: The following floating-point exceptions are signalling: IEEE_UNDERFLOW_FLAG IEEE_DENORMAL
Note: The following floating-point exceptions are signalling: IEEE_UNDERFLOW_FLAG IEEE_DENORMAL
Note: The following floating-point exceptions are signalling: IEEE_UNDERFLOW_FLAG IEEE_DENORMAL
Note: The following floating-point exceptions are signalling: IEEE_UNDERFLOW_FLAG IEEE_DENORMAL
Note: The following floating-point exceptions are signalling: IEEE_UNDERFLOW_FLAG IEEE_DENORMAL
Note: The following floating-point exceptions are signalling: IEEE_UNDERFLOW_FLAG IEEE_DENORMAL
Note: The following floating-point exceptions are signalling: IEEE_UNDERFLOW_FLAG IEEE_DENORMAL
Note: The following floating-point exceptions are signalling: IEEE_UNDERFLOW_FLAG IEEE_DENORMAL
Note: The following floating-point exceptions are signalling: IEEE_UNDERFLOW_FLAG IEEE_DENORMAL
Note: The following floating-point exceptions are signalling: IEEE_UNDERFLOW_FLAG IEEE_DENORMAL
Note: The following floating-point exceptions are signalling: IEEE_UNDERFLOW_FLAG IEEE_DENORMAL
Note: The following floating-point exceptions are signalling: IEEE_UNDERFLOW_FLAG IEEE_DENORMAL
Note: The following floating-point exceptions are signalling: IEEE_UNDERFLOW_FLAG IEEE_DENORMAL
