
     Program PWSCF v.7.5 starts on 20Jun2026 at 13:44:41 

     This program is part of the open-source Quantum ESPRESSO suite
     for quantum simulation of materials; please cite
         "P. Giannozzi et al., J. Phys.:Condens. Matter 21 395502 (2009);
         "P. Giannozzi et al., J. Phys.:Condens. Matter 29 465901 (2017);
         "P. Giannozzi et al., J. Chem. Phys. 152 154105 (2020);
          URL http://www.quantum-espresso.org", 
     in publications or presentations arising from this work. More details at
     http://www.quantum-espresso.org/quote

     Parallel version (MPI), running on    24 processors

     MPI processes distributed on     1 nodes
     24985 MiB available memory on the printing compute node when the environment starts

     Waiting for input...
     Reading input from standard input

     Current dimensions of program PWSCF are:
     Max number of different atomic species (ntypx) = 10
     Max number of k-points (npk) =  40000
     Max angular momentum in pseudopotentials (lmaxx) =  4
     file Mo.pbe-spn-kjpaw_psl.1.0.0.UPF: wavefunction(s)  4S 4D renormalized
     file Se.pbe-dn-kjpaw_psl.1.0.0.UPF: wavefunction(s)  4S 4P 3D renormalized

     IMPORTANT: XC functional enforced from input :
     Exchange-correlation= VDW-DF2-B86R
                           (   1   4  26   0   2   0   0)
     Any further DFT definition will be discarded
     Please, verify this is what you really want


     R & G space division:  proc/nbgrp/npool/nimage =      24
     Subspace diagonalization in iterative solution of the eigenvalue problem:
     a serial algorithm will be used


     Parallelization info
     --------------------
     sticks:   dense  smooth     PW     G-vecs:    dense   smooth      PW
     Min          69      35     10                35537    12585    1924
     Max          70      36     11                35620    12648    1981
     Sum        1675     847    241               853823   302525   46513

     Using Slab Decomposition



     bravais-lattice index     =            4
     lattice parameter (alat)  =       6.1794  a.u.
     unit-cell volume          =    3124.5879 (a.u.)^3
     number of atoms/cell      =            6
     number of atomic types    =            2
     number of electrons       =        92.00
     number of Kohn-Sham states=           55
     kinetic-energy cutoff     =      80.0000  Ry
     charge density cutoff     =     640.0000  Ry
     scf convergence threshold =      1.0E-08
     mixing beta               =       0.3000
     number of iterations used =            8  local-TF  mixing
     Exchange-correlation= VDW-DF2-B86R
                           (   1   4  26   0   2   0   0)

     celldm(1)=   6.179404  celldm(2)=   0.000000  celldm(3)=  15.290520
     celldm(4)=   0.000000  celldm(5)=   0.000000  celldm(6)=   0.000000

     crystal axes: (cart. coord. in units of alat)
               a(1) = (   1.000000   0.000000   0.000000 )  
               a(2) = (  -0.500000   0.866025   0.000000 )  
               a(3) = (   0.000000   0.000000  15.290520 )  

     reciprocal axes: (cart. coord. in units 2 pi/alat)
               b(1) = (  1.000000  0.577350 -0.000000 )  
               b(2) = (  0.000000  1.154701  0.000000 )  
               b(3) = (  0.000000 -0.000000  0.065400 )  


     PseudoPot. # 1 for Mo read from file:
     ./pseudo/Mo.pbe-spn-kjpaw_psl.1.0.0.UPF
     MD5 check sum: 4396e0c640fcce5c25f020efccf1ab12
     Pseudo is Projector augmented-wave + core cor, Zval = 14.0
     Generated using &quot;atomic&quot; code by A. Dal Corso  v.6.3
     Shape of augmentation charge: PSQ
     Using radial grid of 1229 points,  6 beta functions with: 
                l(1) =   0
                l(2) =   0
                l(3) =   1
                l(4) =   1
                l(5) =   2
                l(6) =   2
     Q(r) pseudized with 0 coefficients 


     PseudoPot. # 2 for Se read from file:
     ./pseudo/Se.pbe-dn-kjpaw_psl.1.0.0.UPF
     MD5 check sum: ac240dd2bae32a30e0bf3a38df9c8785
     Pseudo is Projector augmented-wave + core cor, Zval = 16.0
     Generated using &quot;atomic&quot; code by A. Dal Corso  v.6.3
     Shape of augmentation charge: PSQ
     Using radial grid of 1211 points,  6 beta functions with: 
                l(1) =   0
                l(2) =   0
                l(3) =   1
                l(4) =   1
                l(5) =   2
                l(6) =   2
     Q(r) pseudized with 0 coefficients 


     atomic species   valence    mass     pseudopotential
     Mo               14.00    95.96000     Mo( 1.00)
     Se               16.00    78.96000     Se( 1.00)

      6 Sym. Ops. (no inversion) found



   Cartesian axes

     site n.     atom                  positions (alat units)
         1        Se     tau(   1) = (  -0.0000005   0.5773506   6.1238532  )
         2        Mo     tau(   2) = (   0.0000000   0.0000000   6.6502752  )
         3        Se     tau(   3) = (   0.5000005   0.2886748   7.1775994  )
         4        Se     tau(   4) = (  -0.0000005   0.5773506  10.4364985  )
         5        Mo     tau(   5) = (   0.5000005   0.2886748  10.9636850  )
         6        Se     tau(   6) = (   0.0000000   0.0000000  11.4908257  )

     number of k points=    30  Methfessel-Paxton smearing, width (Ry)=  0.0200
                       cart. coord. in units 2pi/alat
        k(    1) = (   0.0000000   0.0000000   0.0000000), wk =   0.0078125
        k(    2) = (   0.0000000   0.0721688   0.0000000), wk =   0.0468750
        k(    3) = (   0.0000000   0.1443376   0.0000000), wk =   0.0468750
        k(    4) = (   0.0000000   0.2165064   0.0000000), wk =   0.0468750
        k(    5) = (   0.0000000   0.2886751   0.0000000), wk =   0.0468750
        k(    6) = (   0.0000000   0.3608439   0.0000000), wk =   0.0468750
        k(    7) = (   0.0000000   0.4330127   0.0000000), wk =   0.0468750
        k(    8) = (   0.0000000   0.5051815   0.0000000), wk =   0.0468750
        k(    9) = (   0.0000000  -0.5773503   0.0000000), wk =   0.0234375
        k(   10) = (   0.0625000   0.1082532   0.0000000), wk =   0.0468750
        k(   11) = (   0.0625000   0.1804220   0.0000000), wk =   0.0937500
        k(   12) = (   0.0625000   0.2525907   0.0000000), wk =   0.0937500
        k(   13) = (   0.0625000   0.3247595   0.0000000), wk =   0.0937500
        k(   14) = (   0.0625000   0.3969283   0.0000000), wk =   0.0937500
        k(   15) = (   0.0625000   0.4690971   0.0000000), wk =   0.0937500
        k(   16) = (   0.0625000   0.5412659   0.0000000), wk =   0.0937500
        k(   17) = (   0.1250000   0.2165064   0.0000000), wk =   0.0468750
        k(   18) = (   0.1250000   0.2886751   0.0000000), wk =   0.0937500
        k(   19) = (   0.1250000   0.3608439   0.0000000), wk =   0.0937500
        k(   20) = (   0.1250000   0.4330127   0.0000000), wk =   0.0937500
        k(   21) = (   0.1250000   0.5051815   0.0000000), wk =   0.0937500
        k(   22) = (   0.1250000   0.5773503   0.0000000), wk =   0.0468750
        k(   23) = (   0.1875000   0.3247595   0.0000000), wk =   0.0468750
        k(   24) = (   0.1875000   0.3969283   0.0000000), wk =   0.0937500
        k(   25) = (   0.1875000   0.4690971   0.0000000), wk =   0.0937500
        k(   26) = (   0.1875000   0.5412659   0.0000000), wk =   0.0937500
        k(   27) = (   0.2500000   0.4330127   0.0000000), wk =   0.0468750
        k(   28) = (   0.2500000   0.5051815   0.0000000), wk =   0.0937500
        k(   29) = (   0.2500000   0.5773503   0.0000000), wk =   0.0468750
        k(   30) = (   0.3125000   0.5412659   0.0000000), wk =   0.0468750

     Dense  grid:   853823 G-vectors     FFT dimensions: (  50,  50, 768)

     Smooth grid:   302525 G-vectors     FFT dimensions: (  36,  36, 540)

     Estimated max dynamical RAM per process >     171.88 MB

     Estimated total dynamical RAM >       4.03 GB

     Initial potential from superposition of free atoms

     starting charge      91.9979, renormalised to      92.0000

     negative rho (up, down):  1.693E-04 0.000E+00


     %%%%%%%%%%%%%%%%%%%%%%%%%%%%%%%%%%%%%%%%%%%%%%%%%%%%%%%%%%%%%%%%%%%%%%%%
     %                                                                      %
     % You are using vdW-DF, which was implemented by the Thonhauser group. %
     % Please cite the following two papers that made this development      %
     % possible and the two reviews that describe the various versions:     %
     %                                                                      %
     %   T. Thonhauser et al., PRL 115, 136402 (2015).                      %
     %   T. Thonhauser et al., PRB 76, 125112 (2007).                       %
     %   K. Berland et al., Rep. Prog. Phys. 78, 066501 (2015).             %
     %   D.C. Langreth et al., J. Phys.: Condens. Matter 21, 084203 (2009). %
     %                                                                      %
     % If you are calculating stress with vdW-DF, please also cite:         %
     %                                                                      %
     %   R. Sabatini et al., J. Phys.: Condens. Matter 24, 424209 (2012).   %
     %                                                                      %
     %%%%%%%%%%%%%%%%%%%%%%%%%%%%%%%%%%%%%%%%%%%%%%%%%%%%%%%%%%%%%%%%%%%%%%%%

     %%%%%%%%%%%%%%%%%%%%%%%%%%%%%%%%%%%%%%%%%%%%%%%%%%%%%%%%%%%%%%%%%%%%%%%%
     %                                                                      %
     %  vdW-DF NEWS:                                                        %
     %                                                                      %
     %  * vdW-DF3 is now available. DOI: 10.1021/acs.jctc.0c00471           %
     %    use with input_dft = 'vdW-DF3-opt1' or 'vdW-DF3-opt2'             %
     %                                                                      %
     %  * Unscreened and range-separated hybrid vdW-DF-cx functionals       %
     %    DOI: 10.1063/1.4986522 and 10.1088/1361-648X/ac2ad2               %
     %    use with input_dft = 'vdW-DF-cx0'    and 'vdW-DF-ahcx'            %
     %  * Unscreened and range-separated hybrid vdW-DF2-b86r functionals    %
     %    DOI: 10.1063/1.4986522 and DOI: 10.1103/PhysRevX.12.041003        %
     %    use with input_dft = 'vdW-DF2-br0' and 'vdW-DF2-ahbr'             %
     %                                                                      %
     %%%%%%%%%%%%%%%%%%%%%%%%%%%%%%%%%%%%%%%%%%%%%%%%%%%%%%%%%%%%%%%%%%%%%%%%


     Starting wfcs are   56 randomized atomic wfcs
     Checking if some PAW data can be deallocated... 

     total cpu time spent up to now is       12.1 secs

     per-process dynamical memory:    79.7 Mb

     Self-consistent Calculation

     iteration #  1     ecut=    80.00 Ry     beta= 0.30
     Davidson diagonalization with overlap
     ethr =  1.00E-02,  avg # of iterations =  4.3

     Threshold (ethr) on eigenvalues was too large:
     Diagonalizing with lowered threshold

     Davidson diagonalization with overlap
     ethr =  4.49E-04,  avg # of iterations =  2.1

     negative rho (up, down):  3.297E-05 0.000E+00

     total cpu time spent up to now is       50.3 secs

     total energy              =   -2326.96251180 Ry
     estimated scf accuracy    <       0.46094645 Ry

     iteration #  2     ecut=    80.00 Ry     beta= 0.30
     Davidson diagonalization with overlap
     ethr =  5.01E-04,  avg # of iterations =  1.2

     negative rho (up, down):  5.222E-06 0.000E+00

     total cpu time spent up to now is       66.2 secs

     total energy              =   -2326.91598191 Ry
     estimated scf accuracy    <       0.24373953 Ry

     iteration #  3     ecut=    80.00 Ry     beta= 0.30
     Davidson diagonalization with overlap
     ethr =  2.65E-04,  avg # of iterations =  4.3

     negative rho (up, down):  1.331E-06 0.000E+00

     total cpu time spent up to now is       84.8 secs

     total energy              =   -2326.92271145 Ry
     estimated scf accuracy    <       0.03231653 Ry

     iteration #  4     ecut=    80.00 Ry     beta= 0.30
     Davidson diagonalization with overlap
     c_bands:  1 eigenvalues not converged
     ethr =  3.51E-05,  avg # of iterations =  8.7

     negative rho (up, down):  8.289E-07 0.000E+00

     total cpu time spent up to now is      106.1 secs

     total energy              =   -2326.92292089 Ry
     estimated scf accuracy    <       0.01058287 Ry

     iteration #  5     ecut=    80.00 Ry     beta= 0.30
     Davidson diagonalization with overlap
     ethr =  1.15E-05,  avg # of iterations =  3.9

     negative rho (up, down):  7.342E-07 0.000E+00

     total cpu time spent up to now is      125.9 secs

     total energy              =   -2326.92186923 Ry
     estimated scf accuracy    <       0.00461803 Ry

     iteration #  6     ecut=    80.00 Ry     beta= 0.30
     Davidson diagonalization with overlap
     c_bands:  1 eigenvalues not converged
     ethr =  5.02E-06,  avg # of iterations =  5.8

     negative rho (up, down):  2.994E-07 0.000E+00

     total cpu time spent up to now is      147.0 secs

     total energy              =   -2326.92183522 Ry
     estimated scf accuracy    <       0.00166779 Ry

     iteration #  7     ecut=    80.00 Ry     beta= 0.30
     Davidson diagonalization with overlap
     ethr =  1.81E-06,  avg # of iterations =  4.9

     negative rho (up, down):  5.872E-05 0.000E+00

     total cpu time spent up to now is      165.4 secs

     total energy              =   -2326.92160040 Ry
     estimated scf accuracy    <       0.00147067 Ry

     iteration #  8     ecut=    80.00 Ry     beta= 0.30
     Davidson diagonalization with overlap
     c_bands:  1 eigenvalues not converged
     c_bands:  1 eigenvalues not converged
     ethr =  1.60E-06,  avg # of iterations =  8.0

     negative rho (up, down):  8.623E-05 0.000E+00

     total cpu time spent up to now is      184.9 secs

     total energy              =   -2326.92158693 Ry
     estimated scf accuracy    <       0.00073132 Ry

     iteration #  9     ecut=    80.00 Ry     beta= 0.30
     Davidson diagonalization with overlap
     ethr =  7.95E-07,  avg # of iterations =  1.8

     negative rho (up, down):  2.367E-03 0.000E+00

     total cpu time spent up to now is      202.3 secs

     total energy              =   -2326.92171213 Ry
     estimated scf accuracy    <       0.00051551 Ry

     iteration # 10     ecut=    80.00 Ry     beta= 0.30
     Davidson diagonalization with overlap
     ethr =  5.60E-07,  avg # of iterations =  7.4

     negative rho (up, down):  3.918E-03 0.000E+00

     total cpu time spent up to now is      221.2 secs

     total energy              =   -2326.92167261 Ry
     estimated scf accuracy    <       0.00041430 Ry

     iteration # 11     ecut=    80.00 Ry     beta= 0.30
     Davidson diagonalization with overlap
     ethr =  4.50E-07,  avg # of iterations =  4.2

     negative rho (up, down):  4.242E-03 0.000E+00

     total cpu time spent up to now is      238.9 secs

     total energy              =   -2326.92165923 Ry
     estimated scf accuracy    <       0.00034523 Ry

     iteration # 12     ecut=    80.00 Ry     beta= 0.30
     Davidson diagonalization with overlap
     ethr =  3.75E-07,  avg # of iterations =  1.0

     negative rho (up, down):  2.923E-03 0.000E+00

     total cpu time spent up to now is      254.1 secs

     total energy              =   -2326.92151811 Ry
     estimated scf accuracy    <       0.00031956 Ry

     iteration # 13     ecut=    80.00 Ry     beta= 0.30
     Davidson diagonalization with overlap
     ethr =  3.47E-07,  avg # of iterations =  5.1

     negative rho (up, down):  3.699E-03 0.000E+00

     total cpu time spent up to now is      273.3 secs

     total energy              =   -2326.92148538 Ry
     estimated scf accuracy    <       0.00014308 Ry

     iteration # 14     ecut=    80.00 Ry     beta= 0.30
     Davidson diagonalization with overlap
     ethr =  1.56E-07,  avg # of iterations =  2.1

     negative rho (up, down):  1.864E-03 0.000E+00

     total cpu time spent up to now is      292.0 secs

     total energy              =   -2326.92158943 Ry
     estimated scf accuracy    <       0.00007333 Ry

     iteration # 15     ecut=    80.00 Ry     beta= 0.30
     Davidson diagonalization with overlap
     ethr =  7.97E-08,  avg # of iterations =  6.3

     negative rho (up, down):  1.497E-03 0.000E+00

     total cpu time spent up to now is      312.3 secs

     total energy              =   -2326.92160827 Ry
     estimated scf accuracy    <       0.00001120 Ry

     iteration # 16     ecut=    80.00 Ry     beta= 0.30
     Davidson diagonalization with overlap
     ethr =  1.22E-08,  avg # of iterations =  2.0

     negative rho (up, down):  5.732E-04 0.000E+00

     total cpu time spent up to now is      330.8 secs

     total energy              =   -2326.92162860 Ry
     estimated scf accuracy    <       0.00000432 Ry

     iteration # 17     ecut=    80.00 Ry     beta= 0.30
     Davidson diagonalization with overlap
     ethr =  4.69E-09,  avg # of iterations =  4.1

     negative rho (up, down):  3.603E-04 0.000E+00

     total cpu time spent up to now is      352.8 secs

     total energy              =   -2326.92163026 Ry
     estimated scf accuracy    <       0.00000092 Ry

     iteration # 18     ecut=    80.00 Ry     beta= 0.30
     Davidson diagonalization with overlap
     ethr =  1.00E-09,  avg # of iterations =  5.0

     negative rho (up, down):  2.339E-04 0.000E+00

     total cpu time spent up to now is      372.0 secs

     total energy              =   -2326.92163047 Ry
     estimated scf accuracy    <       0.00000038 Ry

     iteration # 19     ecut=    80.00 Ry     beta= 0.30
     Davidson diagonalization with overlap
     ethr =  4.08E-10,  avg # of iterations =  4.6

     negative rho (up, down):  2.354E-04 0.000E+00

     total cpu time spent up to now is      392.9 secs

     total energy              =   -2326.92162987 Ry
     estimated scf accuracy    <       0.00000005 Ry

     iteration # 20     ecut=    80.00 Ry     beta= 0.30
     Davidson diagonalization with overlap
     ethr =  5.29E-11,  avg # of iterations =  2.8

     negative rho (up, down):  2.297E-04 0.000E+00

     total cpu time spent up to now is      412.3 secs

     total energy              =   -2326.92162981 Ry
     estimated scf accuracy    <       0.00000002 Ry

     iteration # 21     ecut=    80.00 Ry     beta= 0.30
     Davidson diagonalization with overlap
     ethr =  1.81E-11,  avg # of iterations =  1.8

     negative rho (up, down):  1.966E-04 0.000E+00

     total cpu time spent up to now is      429.9 secs

     total energy              =   -2326.92162996 Ry
     estimated scf accuracy    <       0.00000001 Ry

     iteration # 22     ecut=    80.00 Ry     beta= 0.30
     Davidson diagonalization with overlap
     ethr =  1.21E-11,  avg # of iterations =  2.5

     negative rho (up, down):  1.973E-04 0.000E+00

     total cpu time spent up to now is      448.8 secs

     End of self-consistent calculation

          k = 0.0000 0.0000 0.0000 ( 37787 PWs)   bands (ev):

   -61.8962 -61.8953 -48.2911 -48.2911 -48.2908 -48.2908 -48.2895 -48.2895
   -48.2893 -48.2893 -48.2455 -48.2455 -48.2452 -48.2452 -48.2440 -48.2440
   -48.2439 -48.2439 -48.2269 -48.2264 -48.2254 -48.2251 -36.0146 -36.0136
   -35.8993 -35.8993 -35.8980 -35.8980 -15.2942 -15.2907 -14.4760 -14.4745
    -6.4373  -6.4343  -3.3607  -3.3607  -3.3546  -3.3546  -3.3362  -3.3360
    -1.5900  -1.5888  -1.0644  -1.0643  -1.0615  -1.0615   0.2289   0.2289
     0.2317   0.2317   2.9474   2.9474   2.9495   2.9495   3.2394

          k = 0.0000 0.0722 0.0000 ( 37755 PWs)   bands (ev):

   -61.8952 -61.8943 -48.2911 -48.2909 -48.2907 -48.2906 -48.2895 -48.2894
   -48.2893 -48.2891 -48.2456 -48.2455 -48.2452 -48.2452 -48.2441 -48.2440
   -48.2439 -48.2439 -48.2268 -48.2263 -48.2253 -48.2250 -36.0124 -36.0113
   -35.9099 -35.9086 -35.9017 -35.9004 -15.2374 -15.2339 -14.4466 -14.4450
    -6.3595  -6.3565  -3.8332  -3.8293  -3.3287  -3.3226  -2.9331  -2.9310
    -1.6281  -1.6273  -1.2540  -1.2512  -1.2114  -1.2082   0.1213   0.1235
     0.3419   0.3444   2.6261   2.6294   2.8988   2.9008   3.3460

          k = 0.0000 0.1443 0.0000 ( 37697 PWs)   bands (ev):

   -61.8925 -61.8916 -48.2910 -48.2907 -48.2904 -48.2900 -48.2895 -48.2893
   -48.2888 -48.2886 -48.2458 -48.2456 -48.2454 -48.2452 -48.2443 -48.2442
   -48.2440 -48.2439 -48.2265 -48.2261 -48.2250 -48.2248 -36.0060 -36.0050
   -35.9400 -35.9387 -35.9087 -35.9073 -15.0711 -15.0677 -14.3604 -14.3587
    -6.1343  -6.1313  -4.3190  -4.3146  -3.2534  -3.2473  -2.7137  -2.7122
    -2.0774  -2.0751  -1.4989  -1.4954  -1.4556  -1.4551   0.0031   0.0041
     0.5325   0.5343   2.0323   2.0351   2.7990   2.8009   3.6062

          k = 0.0000 0.2165 0.0000 ( 37653 PWs)   bands (ev):

   -61.8883 -61.8875 -48.2910 -48.2907 -48.2895 -48.2894 -48.2893 -48.2892
   -48.2880 -48.2878 -48.2461 -48.2458 -48.2455 -48.2453 -48.2447 -48.2443
   -48.2441 -48.2439 -48.2261 -48.2257 -48.2247 -48.2244 -35.9968 -35.9957
   -35.9845 -35.9831 -35.9190 -35.9177 -14.8081 -14.8048 -14.2240 -14.2221
    -5.7936  -5.7906  -4.7484  -4.7439  -3.2578  -3.2547  -3.2018  -3.1958
    -2.4348  -2.4341  -1.7226  -1.7188  -1.5566  -1.5562  -0.0278  -0.0276
     0.6389   0.6402   1.6709   1.6732   2.7336   2.7353   3.9742

          k = 0.0000 0.2887 0.0000 ( 37721 PWs)   bands (ev):

   -61.8835 -61.8826 -48.2910 -48.2907 -48.2895 -48.2892 -48.2887 -48.2883
   -48.2871 -48.2869 -48.2465 -48.2459 -48.2457 -48.2453 -48.2451 -48.2445
   -48.2443 -48.2440 -48.2257 -48.2252 -48.2242 -48.2239 -36.0375 -36.0361
   -35.9849 -35.9838 -35.9312 -35.9299 -14.4749 -14.4717 -14.0462 -14.0439
    -5.4822  -5.4786  -4.9883  -4.9843  -4.2798  -4.2764  -3.2562  -3.2505
    -2.6202  -2.6201  -1.8097  -1.8090  -1.7662  -1.7622   0.0534   0.0539
     0.6440   0.6450   1.7776   1.7799   2.7348   2.7366   4.4443

          k = 0.0000 0.3608 0.0000 ( 37749 PWs)   bands (ev):

   -61.8786 -61.8777 -48.2911 -48.2906 -48.2895 -48.2891 -48.2877 -48.2874
   -48.2862 -48.2860 -48.2470 -48.2461 -48.2459 -48.2455 -48.2454 -48.2446
   -48.2445 -48.2440 -48.2252 -48.2248 -48.2238 -48.2235 -36.0895 -36.0881
   -35.9736 -35.9725 -35.9434 -35.9420 -14.1266 -14.1234 -13.8267 -13.8242
    -5.5990  -5.5947  -5.2372  -5.2340  -4.7242  -4.7210  -3.4048  -3.3993
    -2.9804  -2.9803  -2.0750  -2.0743  -1.6609  -1.6570   0.3129   0.3133
     0.6209   0.6222   2.1964   2.1989   2.7713   2.7734   4.9877

          k = 0.0000 0.4330 0.0000 ( 37785 PWs)   bands (ev):

   -61.8745 -61.8736 -48.2911 -48.2905 -48.2896 -48.2890 -48.2870 -48.2867
   -48.2854 -48.2853 -48.2473 -48.2462 -48.2460 -48.2459 -48.2455 -48.2447
   -48.2446 -48.2441 -48.2248 -48.2244 -48.2234 -48.2231 -36.1332 -36.1318
   -35.9639 -35.9629 -35.9537 -35.9523 -13.8627 -13.8594 -13.5478 -13.5452
    -6.1994  -6.1956  -5.5770  -5.5738  -4.5345  -4.5319  -3.5639  -3.5586
    -3.2348  -3.2340  -2.2485  -2.2478  -1.5272  -1.5236   0.6355   0.6372
     0.6779   0.6780   2.7118   2.7145   2.8078   2.8101   5.1670

          k = 0.0000 0.5052 0.0000 ( 37822 PWs)   bands (ev):

   -61.8718 -61.8709 -48.2912 -48.2904 -48.2897 -48.2890 -48.2865 -48.2862
   -48.2849 -48.2848 -48.2476 -48.2463 -48.2461 -48.2461 -48.2455 -48.2448
   -48.2447 -48.2441 -48.2246 -48.2241 -48.2231 -48.2228 -36.1623 -36.1608
   -35.9605 -35.9592 -35.9575 -35.9565 -13.7176 -13.7140 -13.2860 -13.2834
    -6.7570  -6.7532  -5.5983  -5.5958  -4.7016  -4.6992  -3.6760  -3.6708
    -3.1148  -3.1133  -2.3766  -2.3760  -1.4400  -1.4368   0.6846   0.6868
     1.0191   1.0192   2.8304   2.8329   3.1588   3.1614   4.6766

          k = 0.0000-0.5774 0.0000 ( 37832 PWs)   bands (ev):

   -61.8708 -61.8699 -48.2912 -48.2904 -48.2897 -48.2890 -48.2863 -48.2860
   -48.2847 -48.2846 -48.2476 -48.2463 -48.2462 -48.2461 -48.2455 -48.2449
   -48.2447 -48.2441 -48.2245 -48.2240 -48.2230 -48.2227 -36.1725 -36.1710
   -35.9629 -35.9616 -35.9552 -35.9542 -13.6701 -13.6664 -13.1794 -13.1769
    -6.9622  -6.9584  -5.5687  -5.5667  -4.8444  -4.8418  -3.7157  -3.7104
    -2.9861  -2.9845  -2.4451  -2.4445  -1.4123  -1.4092   0.7122   0.7146
     1.1659   1.1660   2.8376   2.8402   3.3790   3.3811   4.3501

          k = 0.0625 0.1083 0.0000 ( 37709 PWs)   bands (ev):

   -61.8933 -61.8925 -48.2910 -48.2907 -48.2905 -48.2902 -48.2895 -48.2893
   -48.2890 -48.2888 -48.2457 -48.2456 -48.2453 -48.2452 -48.2443 -48.2441
   -48.2439 -48.2439 -48.2266 -48.2261 -48.2251 -48.2248 -36.0081 -36.0070
   -35.9300 -35.9286 -35.9067 -35.9054 -15.1258 -15.1224 -14.3888 -14.3871
    -6.2076  -6.2046  -4.1900  -4.1858  -3.2822  -3.2761  -2.7341  -2.7326
    -1.8765  -1.8749  -1.4990  -1.4957  -1.3804  -1.3793   0.0634   0.0648
     0.4322   0.4341   2.2600   2.2632   2.7551   2.7569   3.5269

          k = 0.0625 0.1804 0.0000 ( 37703 PWs)   bands (ev):

   -61.8899 -61.8890 -48.2910 -48.2907 -48.2899 -48.2896 -48.2894 -48.2893
   -48.2884 -48.2881 -48.2460 -48.2457 -48.2454 -48.2453 -48.2446 -48.2442
   -48.2441 -48.2439 -48.2263 -48.2258 -48.2248 -48.2245 -36.0001 -35.9991
   -35.9666 -35.9652 -35.9162 -35.9149 -14.9107 -14.9074 -14.2776 -14.2758
    -5.9196  -5.9166  -4.6038  -4.5992  -3.2766  -3.2708  -2.8109  -2.8087
    -2.4536  -2.4514  -1.7537  -1.7507  -1.4122  -1.4118   0.0631   0.0637
     0.4329   0.4340   1.9402   1.9427   2.5812   2.5828   3.8353

          k = 0.0625 0.2526 0.0000 ( 37702 PWs)   bands (ev):

   -61.8854 -61.8845 -48.2909 -48.2906 -48.2894 -48.2892 -48.2891 -48.2888
   -48.2875 -48.2873 -48.2464 -48.2458 -48.2456 -48.2454 -48.2449 -48.2444
   -48.2442 -48.2440 -48.2259 -48.2254 -48.2244 -48.2241 -36.0143 -36.0129
   -35.9895 -35.9884 -35.9286 -35.9272 -14.6106 -14.6073 -14.1216 -14.1195
    -5.5521  -5.5490  -4.9480  -4.9435  -3.8356  -3.8319  -3.2224  -3.2176
    -2.5994  -2.5978  -1.9637  -1.9613  -1.4438  -1.4426  -0.0008  -0.0006
     0.5130   0.5138   1.8325   1.8346   2.5525   2.5542   4.2529

          k = 0.0625 0.3248 0.0000 ( 37734 PWs)   bands (ev):

   -61.8806 -61.8797 -48.2910 -48.2905 -48.2894 -48.2891 -48.2882 -48.2879
   -48.2866 -48.2865 -48.2468 -48.2460 -48.2458 -48.2454 -48.2453 -48.2445
   -48.2444 -48.2440 -48.2254 -48.2249 -48.2239 -48.2237 -36.0652 -36.0638
   -35.9782 -35.9772 -35.9420 -35.9406 -14.2622 -14.2590 -13.9281 -13.9257
    -5.4451  -5.4410  -4.9242  -4.9211  -4.7799  -4.7762  -3.4618  -3.4574
    -2.7250  -2.7238  -2.2788  -2.2765  -1.4337  -1.4316   0.0497   0.0499
     0.6616   0.6624   1.9688   1.9706   2.6456   2.6476   4.7684

          k = 0.0625 0.3969 0.0000 ( 37770 PWs)   bands (ev):

   -61.8761 -61.8752 -48.2910 -48.2904 -48.2895 -48.2890 -48.2874 -48.2871
   -48.2858 -48.2857 -48.2472 -48.2462 -48.2459 -48.2457 -48.2455 -48.2447
   -48.2445 -48.2441 -48.2250 -48.2245 -48.2235 -48.2232 -36.1120 -36.1105
   -35.9678 -35.9668 -35.9542 -35.9529 -13.9461 -13.9428 -13.6838 -13.6813
    -5.8152  -5.8112  -5.4809  -5.4776  -4.5586  -4.5558  -3.7069  -3.7028
    -2.9891  -2.9877  -2.4968  -2.4948  -1.3658  -1.3634   0.2465   0.2468
     0.8185   0.8195   2.2550   2.2568   2.8182   2.8208   5.2995

          k = 0.0625 0.4691 0.0000 ( 37798 PWs)   bands (ev):

   -61.8727 -61.8718 -48.2910 -48.2903 -48.2895 -48.2889 -48.2867 -48.2865
   -48.2852 -48.2850 -48.2474 -48.2463 -48.2460 -48.2460 -48.2455 -48.2449
   -48.2445 -48.2442 -48.2247 -48.2242 -48.2232 -48.2229 -36.1475 -36.1460
   -35.9641 -35.9627 -35.9594 -35.9584 -13.7486 -13.7451 -13.3982 -13.3956
    -6.4702  -6.4664  -5.5873  -5.5844  -4.5531  -4.5507  -3.8008  -3.7963
    -3.1041  -3.1023  -2.6022  -2.6005  -1.3258  -1.3235   0.4880   0.4892
     1.0008   1.0016   2.4792   2.4811   3.0754   3.0781   5.1488

          k = 0.0625 0.5413 0.0000 ( 37791 PWs)   bands (ev):

   -61.8708 -61.8699 -48.2910 -48.2903 -48.2895 -48.2888 -48.2864 -48.2861
   -48.2848 -48.2847 -48.2476 -48.2464 -48.2461 -48.2460 -48.2456 -48.2450
   -48.2446 -48.2442 -48.2245 -48.2240 -48.2230 -48.2227 -36.1666 -36.1652
   -35.9690 -35.9676 -35.9552 -35.9542 -13.6554 -13.6518 -13.2031 -13.2005
    -6.8570  -6.8532  -5.5697  -5.5675  -4.7630  -4.7604  -3.8183  -3.8135
    -2.9910  -2.9892  -2.6745  -2.6731  -1.3269  -1.3248   0.6679   0.6700
     1.1306   1.1309   2.5763   2.5785   3.3186   3.3209   4.6466

          k = 0.1250 0.2165 0.0000 ( 37731 PWs)   bands (ev):

   -61.8861 -61.8852 -48.2909 -48.2906 -48.2894 -48.2893 -48.2892 -48.2890
   -48.2877 -48.2875 -48.2464 -48.2458 -48.2455 -48.2454 -48.2449 -48.2443
   -48.2441 -48.2441 -48.2259 -48.2255 -48.2245 -48.2242 -36.0044 -36.0031
   -35.9913 -35.9903 -35.9291 -35.9278 -14.6571 -14.6539 -14.1474 -14.1454
    -5.5828  -5.5798  -4.9156  -4.9110  -3.6940  -3.6895  -3.0093  -3.0072
    -2.8638  -2.8597  -1.9314  -1.9295  -1.3222  -1.3216   0.0533   0.0538
     0.3145   0.3150   2.1658   2.1685   2.1851   2.1866   4.1907

          k = 0.1250 0.2887 0.0000 ( 37723 PWs)   bands (ev):

   -61.8816 -61.8807 -48.2908 -48.2904 -48.2893 -48.2890 -48.2885 -48.2882
   -48.2870 -48.2868 -48.2467 -48.2459 -48.2457 -48.2455 -48.2453 -48.2444
   -48.2443 -48.2442 -48.2255 -48.2250 -48.2240 -48.2238 -36.0480 -36.0466
   -35.9810 -35.9800 -35.9451 -35.9438 -14.3347 -14.3315 -13.9802 -13.9779
    -5.2690  -5.2651  -5.0800  -5.0763  -4.4618  -4.4580  -3.4617  -3.4586
    -2.9535  -2.9499  -2.1993  -2.1980  -1.1958  -1.1946  -0.1592  -0.1590
     0.6071   0.6076   1.8740   1.8750   2.4764   2.4793   4.6574

          k = 0.1250 0.3608 0.0000 ( 37761 PWs)   bands (ev):

   -61.8771 -61.8763 -48.2907 -48.2902 -48.2892 -48.2888 -48.2878 -48.2875
   -48.2862 -48.2861 -48.2470 -48.2461 -48.2458 -48.2456 -48.2456 -48.2447
   -48.2444 -48.2442 -48.2251 -48.2246 -48.2236 -48.2234 -36.0909 -36.0895
   -35.9712 -35.9701 -35.9608 -35.9595 -13.9946 -13.9914 -13.7793 -13.7767
    -5.4720  -5.4676  -5.2617  -5.2583  -4.6657  -4.6628  -3.8498  -3.8465
    -3.0528  -3.0498  -2.6296  -2.6282  -1.0650  -1.0635  -0.1240  -0.1239
     0.8895   0.8902   1.7921   1.7931   2.7857   2.7886   5.2113

          k = 0.1250 0.4330 0.0000 ( 37768 PWs)   bands (ev):

   -61.8733 -61.8724 -48.2907 -48.2900 -48.2892 -48.2886 -48.2872 -48.2869
   -48.2856 -48.2855 -48.2473 -48.2464 -48.2459 -48.2459 -48.2457 -48.2449
   -48.2444 -48.2443 -48.2247 -48.2243 -48.2233 -48.2230 -36.1269 -36.1255
   -35.9762 -35.9748 -35.9609 -35.9599 -13.7446 -13.7413 -13.5161 -13.5134
    -6.0616  -6.0578  -5.5207  -5.5173  -4.3951  -4.3925  -4.0770  -4.0734
    -3.1644  -3.1618  -2.9782  -2.9765  -1.0329  -1.0317   0.1193   0.1199
     1.0796   1.0807   1.9018   1.9030   3.0651   3.0679   5.6069

          k = 0.1250 0.5052 0.0000 ( 37794 PWs)   bands (ev):

   -61.8708 -61.8699 -48.2906 -48.2899 -48.2891 -48.2885 -48.2867 -48.2865
   -48.2852 -48.2851 -48.2475 -48.2465 -48.2460 -48.2459 -48.2457 -48.2451
   -48.2444 -48.2443 -48.2245 -48.2241 -48.2230 -48.2228 -36.1508 -36.1493
   -35.9853 -35.9839 -35.9552 -35.9542 -13.6127 -13.6092 -13.2672 -13.2645
    -6.5649  -6.5611  -5.5540  -5.5511  -4.5677  -4.5651  -4.0287  -4.0249
    -3.2457  -3.2434  -3.0422  -3.0402  -1.0901  -1.0891   0.4571   0.4583
     1.1290   1.1301   2.0684   2.0699   3.2523   3.2548   5.2848

          k = 0.1250 0.5774 0.0000 ( 37780 PWs)   bands (ev):

   -61.8699 -61.8690 -48.2906 -48.2899 -48.2891 -48.2884 -48.2866 -48.2863
   -48.2850 -48.2849 -48.2475 -48.2466 -48.2461 -48.2459 -48.2457 -48.2452
   -48.2444 -48.2444 -48.2244 -48.2240 -48.2229 -48.2227 -36.1592 -36.1577
   -35.9885 -35.9871 -35.9532 -35.9522 -13.5691 -13.5655 -13.1679 -13.1652
    -6.7484  -6.7447  -5.5460  -5.5434  -4.6824  -4.6796  -4.0251  -4.0211
    -3.2749  -3.2728  -2.9968  -2.9949  -1.1292  -1.1282   0.6586   0.6603
     1.0806   1.0813   2.1513   2.1531   3.3171   3.3192   5.0243

          k = 0.1875 0.3248 0.0000 ( 37725 PWs)   bands (ev):

   -61.8775 -61.8766 -48.2906 -48.2901 -48.2891 -48.2886 -48.2880 -48.2877
   -48.2864 -48.2862 -48.2470 -48.2460 -48.2458 -48.2457 -48.2456 -48.2445
   -48.2444 -48.2443 -48.2251 -48.2247 -48.2236 -48.2234 -36.0814 -36.0799
   -35.9732 -35.9721 -35.9644 -35.9631 -14.0099 -14.0068 -13.8140 -13.8113
    -5.3397  -5.3352  -5.0931  -5.0893  -4.7547  -4.7519  -3.8528  -3.8502
    -3.3337  -3.3297  -2.5102  -2.5091  -0.8965  -0.8952  -0.3038  -0.3037
     0.8879   0.8885   1.6051   1.6057   2.7750   2.7780   5.1701

          k = 0.1875 0.3969 0.0000 ( 37753 PWs)   bands (ev):

   -61.8737 -61.8728 -48.2903 -48.2897 -48.2888 -48.2883 -48.2875 -48.2872
   -48.2860 -48.2858 -48.2472 -48.2463 -48.2459 -48.2458 -48.2457 -48.2448
   -48.2445 -48.2443 -48.2248 -48.2243 -48.2233 -48.2230 -36.1101 -36.1087
   -35.9885 -35.9871 -35.9617 -35.9607 -13.7070 -13.7038 -13.6165 -13.6137
    -5.6928  -5.6890  -5.4434  -5.4394  -4.3542  -4.3514  -4.2048  -4.2020
    -3.6593  -3.6559  -2.9090  -2.9078  -0.6902  -0.6892  -0.2359  -0.2358
     1.1091   1.1099   1.5245   1.5250   3.0674   3.0703   5.7284

          k = 0.1875 0.4691 0.0000 ( 37759 PWs)   bands (ev):

   -61.8708 -61.8699 -48.2902 -48.2895 -48.2886 -48.2880 -48.2872 -48.2869
   -48.2856 -48.2855 -48.2473 -48.2465 -48.2460 -48.2459 -48.2457 -48.2451
   -48.2446 -48.2443 -48.2245 -48.2241 -48.2230 -48.2228 -36.1310 -36.1296
   -36.0055 -36.0042 -35.9552 -35.9543 -13.5466 -13.5432 -13.3543 -13.3514
    -6.1770  -6.1733  -5.5107  -5.5071  -4.4267  -4.4238  -4.1181  -4.1152
    -3.8849  -3.8821  -3.1790  -3.1774  -0.7416  -0.7412   0.1058   0.1064
     1.1491   1.1503   1.6754   1.6761   3.2314   3.2340   5.7974

          k = 0.1875 0.5413 0.0000 ( 37793 PWs)   bands (ev):

   -61.8692 -61.8683 -48.2900 -48.2893 -48.2885 -48.2879 -48.2870 -48.2867
   -48.2855 -48.2853 -48.2474 -48.2467 -48.2461 -48.2459 -48.2457 -48.2453
   -48.2447 -48.2443 -48.2243 -48.2239 -48.2229 -48.2227 -36.1420 -36.1405
   -36.0152 -36.0138 -35.9517 -35.9507 -13.4690 -13.4655 -13.1847 -13.1819
    -6.4543  -6.4506  -5.5392  -5.5360  -4.5203  -4.5172  -4.1608  -4.1577
    -3.9597  -3.9574  -3.2002  -3.1984  -0.8296  -0.8293   0.4725   0.4733
     1.0016   1.0029   1.8861   1.8871   3.2274   3.2295   5.6589

          k = 0.2500 0.4330 0.0000 ( 37711 PWs)   bands (ev):

   -61.8708 -61.8699 -48.2899 -48.2892 -48.2884 -48.2878 -48.2874 -48.2871
   -48.2859 -48.2857 -48.2473 -48.2464 -48.2462 -48.2459 -48.2457 -48.2450
   -48.2448 -48.2443 -48.2245 -48.2241 -48.2230 -48.2228 -36.1206 -36.1191
   -36.0162 -36.0148 -35.9552 -35.9543 -13.4847 -13.4815 -13.4246 -13.4216
    -5.9565  -5.9528  -5.4792  -5.4752  -4.4082  -4.4058  -4.2482  -4.2450
    -4.0437  -4.0409  -3.2748  -3.2735  -0.3308  -0.3303  -0.3100  -0.3090
     1.1446   1.1455   1.5508   1.5509   3.2298   3.2325   6.0096

          k = 0.2500 0.5052 0.0000 ( 37776 PWs)   bands (ev):

   -61.8688 -61.8680 -48.2895 -48.2888 -48.2880 -48.2874 -48.2874 -48.2871
   -48.2859 -48.2857 -48.2473 -48.2467 -48.2463 -48.2458 -48.2456 -48.2452
   -48.2449 -48.2442 -48.2243 -48.2239 -48.2228 -48.2226 -36.1231 -36.1217
   -36.0392 -36.0378 -35.9508 -35.9498 -13.3750 -13.3717 -13.2376 -13.2346
    -6.1042  -6.1006  -5.5309  -5.5271  -4.6676  -4.6641  -4.3855  -4.3833
    -3.9699  -3.9676  -3.5126  -3.5110  -0.4331  -0.4331   0.0626   0.0631
     0.9648   0.9661   1.8422   1.8426   3.1573   3.1596   5.7877

          k = 0.2500 0.5774 0.0000 ( 37791 PWs)   bands (ev):

   -61.8682 -61.8673 -48.2894 -48.2886 -48.2879 -48.2875 -48.2872 -48.2872
   -48.2859 -48.2857 -48.2472 -48.2468 -48.2464 -48.2458 -48.2456 -48.2454
   -48.2450 -48.2442 -48.2243 -48.2239 -48.2228 -48.2226 -36.1226 -36.1211
   -36.0488 -36.0473 -35.9493 -35.9483 -13.3364 -13.3330 -13.1677 -13.1647
    -6.1471  -6.1435  -5.5611  -5.5574  -4.8205  -4.8170  -4.2057  -4.2036
    -4.1862  -4.1842  -3.5135  -3.5116  -0.4840  -0.4840   0.3212   0.3213
     0.7575   0.7595   2.0610   2.0617   3.0203   3.0221   5.6863

          k = 0.3125 0.5413 0.0000 ( 37789 PWs)   bands (ev):

   -61.8678 -61.8669 -48.2889 -48.2882 -48.2878 -48.2875 -48.2874 -48.2868
   -48.2863 -48.2861 -48.2471 -48.2468 -48.2466 -48.2456 -48.2456 -48.2453
   -48.2453 -48.2442 -48.2242 -48.2238 -48.2227 -48.2226 -36.1051 -36.1036
   -36.0713 -36.0698 -35.9484 -35.9474 -13.2570 -13.2536 -13.1951 -13.1921
    -5.8429  -5.8394  -5.5708  -5.5668  -5.2602  -5.2568  -4.2188  -4.2169
    -3.8807  -3.8788  -3.8782  -3.8773  -0.1466  -0.1461   0.0308   0.0309
     0.6579   0.6601   2.2689   2.2697   2.8331   2.8347   5.6181

     the Fermi energy is    -0.2957 ev

!    total energy              =   -2326.92163022 Ry
     total all-electron energy =    -35628.669459 Ry
     estimated scf accuracy    <          3.4E-09 Ry
     smearing contrib. (-TS)   =       0.00090300 Ry
     internal energy E=F+TS    =   -2326.92253321 Ry

     The total energy is F=E-TS. E is the sum of the following terms:
     one-electron contribution =  -15966.08097137 Ry
     hartree contribution      =    7971.27250739 Ry
     xc contribution           =    -152.42419358 Ry
     ewald contribution        =    6830.82462481 Ry
     one-center paw contrib.   =   -1010.51450046 Ry

     convergence has been achieved in  22 iterations

     Writing all to output data dir ./tmp/cleave_038/mose2_cleave_038.save/ :
     XML data file, charge density, pseudopotentials, collected wavefunctions

     init_run     :     11.71s CPU     11.90s WALL (       1 calls)
     electrons    :    425.41s CPU    436.69s WALL (       1 calls)

     Called by init_run:
     wfcinit      :      5.35s CPU      5.37s WALL (       1 calls)
     potinit      :      5.72s CPU      5.77s WALL (       1 calls)
     hinit0       :      0.06s CPU      0.06s WALL (       1 calls)

     Called by electrons:
     c_bands      :    355.05s CPU    361.05s WALL (      23 calls)
     sum_band     :     46.13s CPU     48.69s WALL (      23 calls)
     v_of_rho     :     14.48s CPU     15.32s WALL (      23 calls)
     newd         :      8.76s CPU     10.64s WALL (      23 calls)
     PAW_pot      :      1.42s CPU      1.47s WALL (      23 calls)
     mix_rho      :      5.42s CPU      5.52s WALL (      23 calls)
     vdW_kernel   :      5.28s CPU      5.28s WALL (       1 calls)

     Called by c_bands:
     init_us_2    :      2.29s CPU      2.30s WALL (    1410 calls)
     cegterg      :    345.28s CPU    351.03s WALL (     690 calls)

     Called by *egterg:
     cdiaghg      :      9.61s CPU      9.62s WALL (    3475 calls)
     h_psi        :    140.16s CPU    141.68s WALL (    3535 calls)
     s_psi        :     22.65s CPU     22.68s WALL (    3535 calls)
     g_psi        :      0.34s CPU      0.34s WALL (    2815 calls)

     Called by h_psi:
     h_psi:calbec :     44.71s CPU     45.54s WALL (    3535 calls)
     vloc_psi     :     68.65s CPU     69.31s WALL (    3535 calls)
                                        0.00s GPU  (    3535 calls)
     add_vuspsi   :     26.42s CPU     26.45s WALL (    3535 calls)

     General routines
     calbec       :     63.56s CPU     64.73s WALL (    4225 calls)
     fft          :      6.46s CPU      6.67s WALL (    1448 calls)
     ffts         :      2.05s CPU      2.08s WALL (    2629 calls)
     fftw         :     78.95s CPU     79.72s WALL (  210600 calls)
     interpolate  :      0.11s CPU      0.11s WALL (      23 calls)

     Parallel routines

     PWSCF        :   7m17.83s CPU   7m29.64s WALL


   This run was terminated on:  13:52:10  20Jun2026            

=------------------------------------------------------------------------------=
   JOB DONE.
=------------------------------------------------------------------------------=
Note: The following floating-point exceptions are signalling: IEEE_UNDERFLOW_FLAG IEEE_DENORMAL
Note: The following floating-point exceptions are signalling: IEEE_UNDERFLOW_FLAG IEEE_DENORMAL
Note: The following floating-point exceptions are signalling: IEEE_UNDERFLOW_FLAG IEEE_DENORMAL
Note: The following floating-point exceptions are signalling: IEEE_UNDERFLOW_FLAG IEEE_DENORMAL
Note: The following floating-point exceptions are signalling: IEEE_UNDERFLOW_FLAG IEEE_DENORMAL
Note: The following floating-point exceptions are signalling: IEEE_UNDERFLOW_FLAG IEEE_DENORMAL
Note: The following floating-point exceptions are signalling: IEEE_UNDERFLOW_FLAG IEEE_DENORMAL
Note: The following floating-point exceptions are signalling: IEEE_UNDERFLOW_FLAG IEEE_DENORMAL
Note: The following floating-point exceptions are signalling: IEEE_UNDERFLOW_FLAG IEEE_DENORMAL
Note: The following floating-point exceptions are signalling: IEEE_UNDERFLOW_FLAG IEEE_DENORMAL
Note: The following floating-point exceptions are signalling: IEEE_UNDERFLOW_FLAG IEEE_DENORMAL
Note: The following floating-point exceptions are signalling: IEEE_UNDERFLOW_FLAG IEEE_DENORMAL
Note: The following floating-point exceptions are signalling: IEEE_UNDERFLOW_FLAG IEEE_DENORMAL
Note: The following floating-point exceptions are signalling: IEEE_UNDERFLOW_FLAG IEEE_DENORMAL
Note: The following floating-point exceptions are signalling: IEEE_UNDERFLOW_FLAG IEEE_DENORMAL
Note: The following floating-point exceptions are signalling: IEEE_UNDERFLOW_FLAG IEEE_DENORMAL
Note: The following floating-point exceptions are signalling: IEEE_UNDERFLOW_FLAG IEEE_DENORMAL
Note: The following floating-point exceptions are signalling: IEEE_UNDERFLOW_FLAG IEEE_DENORMAL
Note: The following floating-point exceptions are signalling: IEEE_UNDERFLOW_FLAG IEEE_DENORMAL
Note: The following floating-point exceptions are signalling: IEEE_UNDERFLOW_FLAG IEEE_DENORMAL
Note: The following floating-point exceptions are signalling: IEEE_UNDERFLOW_FLAG IEEE_DENORMAL
Note: The following floating-point exceptions are signalling: IEEE_UNDERFLOW_FLAG IEEE_DENORMAL
Note: The following floating-point exceptions are signalling: IEEE_UNDERFLOW_FLAG IEEE_DENORMAL
Note: The following floating-point exceptions are signalling: IEEE_UNDERFLOW_FLAG IEEE_DENORMAL
