
     Program PWSCF v.7.5 starts on 20Jun2026 at 10:20:52 

     This program is part of the open-source Quantum ESPRESSO suite
     for quantum simulation of materials; please cite
         "P. Giannozzi et al., J. Phys.:Condens. Matter 21 395502 (2009);
         "P. Giannozzi et al., J. Phys.:Condens. Matter 29 465901 (2017);
         "P. Giannozzi et al., J. Chem. Phys. 152 154105 (2020);
          URL http://www.quantum-espresso.org", 
     in publications or presentations arising from this work. More details at
     http://www.quantum-espresso.org/quote

     Parallel version (MPI), running on    24 processors

     MPI processes distributed on     1 nodes
     4316 MiB available memory on the printing compute node when the environment starts

     Waiting for input...
     Reading input from standard input

     Current dimensions of program PWSCF are:
     Max number of different atomic species (ntypx) = 10
     Max number of k-points (npk) =  40000
     Max angular momentum in pseudopotentials (lmaxx) =  4
     file Mo.pbe-spn-kjpaw_psl.1.0.0.UPF: wavefunction(s)  4S 4D renormalized
     file Se.pbe-dn-kjpaw_psl.1.0.0.UPF: wavefunction(s)  4S 4P 3D renormalized

     IMPORTANT: XC functional enforced from input :
     Exchange-correlation= VDW-DF2-B86R
                           (   1   4  26   0   2   0   0)
     Any further DFT definition will be discarded
     Please, verify this is what you really want


     R & G space division:  proc/nbgrp/npool/nimage =      24
     Subspace diagonalization in iterative solution of the eigenvalue problem:
     a serial algorithm will be used


     Parallelization info
     --------------------
     sticks:   dense  smooth     PW     G-vecs:    dense   smooth      PW
     Min          69      35     10                35537    12585    1924
     Max          70      36     11                35620    12648    1981
     Sum        1675     847    241               853823   302525   46513

     Using Slab Decomposition



     bravais-lattice index     =            4
     lattice parameter (alat)  =       6.1794  a.u.
     unit-cell volume          =    3124.5879 (a.u.)^3
     number of atoms/cell      =            6
     number of atomic types    =            2
     number of electrons       =        92.00
     number of Kohn-Sham states=           55
     kinetic-energy cutoff     =      80.0000  Ry
     charge density cutoff     =     640.0000  Ry
     scf convergence threshold =      1.0E-08
     mixing beta               =       0.3000
     number of iterations used =            8  local-TF  mixing
     Exchange-correlation= VDW-DF2-B86R
                           (   1   4  26   0   2   0   0)

     celldm(1)=   6.179404  celldm(2)=   0.000000  celldm(3)=  15.290520
     celldm(4)=   0.000000  celldm(5)=   0.000000  celldm(6)=   0.000000

     crystal axes: (cart. coord. in units of alat)
               a(1) = (   1.000000   0.000000   0.000000 )  
               a(2) = (  -0.500000   0.866025   0.000000 )  
               a(3) = (   0.000000   0.000000  15.290520 )  

     reciprocal axes: (cart. coord. in units 2 pi/alat)
               b(1) = (  1.000000  0.577350 -0.000000 )  
               b(2) = (  0.000000  1.154701  0.000000 )  
               b(3) = (  0.000000 -0.000000  0.065400 )  


     PseudoPot. # 1 for Mo read from file:
     ./pseudo/Mo.pbe-spn-kjpaw_psl.1.0.0.UPF
     MD5 check sum: 4396e0c640fcce5c25f020efccf1ab12
     Pseudo is Projector augmented-wave + core cor, Zval = 14.0
     Generated using &quot;atomic&quot; code by A. Dal Corso  v.6.3
     Shape of augmentation charge: PSQ
     Using radial grid of 1229 points,  6 beta functions with: 
                l(1) =   0
                l(2) =   0
                l(3) =   1
                l(4) =   1
                l(5) =   2
                l(6) =   2
     Q(r) pseudized with 0 coefficients 


     PseudoPot. # 2 for Se read from file:
     ./pseudo/Se.pbe-dn-kjpaw_psl.1.0.0.UPF
     MD5 check sum: ac240dd2bae32a30e0bf3a38df9c8785
     Pseudo is Projector augmented-wave + core cor, Zval = 16.0
     Generated using &quot;atomic&quot; code by A. Dal Corso  v.6.3
     Shape of augmentation charge: PSQ
     Using radial grid of 1211 points,  6 beta functions with: 
                l(1) =   0
                l(2) =   0
                l(3) =   1
                l(4) =   1
                l(5) =   2
                l(6) =   2
     Q(r) pseudized with 0 coefficients 


     atomic species   valence    mass     pseudopotential
     Mo               14.00    95.96000     Mo( 1.00)
     Se               16.00    78.96000     Se( 1.00)

      6 Sym. Ops. (no inversion) found



   Cartesian axes

     site n.     atom                  positions (alat units)
         1        Se     tau(   1) = (  -0.0000005   0.5773506   6.1238532  )
         2        Mo     tau(   2) = (   0.0000000   0.0000000   6.6502752  )
         3        Se     tau(   3) = (   0.5000005   0.2886748   7.1775994  )
         4        Se     tau(   4) = (  -0.0000005   0.5773506   8.8462844  )
         5        Mo     tau(   5) = (   0.5000005   0.2886748   9.3734709  )
         6        Se     tau(   6) = (   0.0000000   0.0000000   9.9006116  )

     number of k points=    30  Methfessel-Paxton smearing, width (Ry)=  0.0200
                       cart. coord. in units 2pi/alat
        k(    1) = (   0.0000000   0.0000000   0.0000000), wk =   0.0078125
        k(    2) = (   0.0000000   0.0721688   0.0000000), wk =   0.0468750
        k(    3) = (   0.0000000   0.1443376   0.0000000), wk =   0.0468750
        k(    4) = (   0.0000000   0.2165064   0.0000000), wk =   0.0468750
        k(    5) = (   0.0000000   0.2886751   0.0000000), wk =   0.0468750
        k(    6) = (   0.0000000   0.3608439   0.0000000), wk =   0.0468750
        k(    7) = (   0.0000000   0.4330127   0.0000000), wk =   0.0468750
        k(    8) = (   0.0000000   0.5051815   0.0000000), wk =   0.0468750
        k(    9) = (   0.0000000  -0.5773503   0.0000000), wk =   0.0234375
        k(   10) = (   0.0625000   0.1082532   0.0000000), wk =   0.0468750
        k(   11) = (   0.0625000   0.1804220   0.0000000), wk =   0.0937500
        k(   12) = (   0.0625000   0.2525907   0.0000000), wk =   0.0937500
        k(   13) = (   0.0625000   0.3247595   0.0000000), wk =   0.0937500
        k(   14) = (   0.0625000   0.3969283   0.0000000), wk =   0.0937500
        k(   15) = (   0.0625000   0.4690971   0.0000000), wk =   0.0937500
        k(   16) = (   0.0625000   0.5412659   0.0000000), wk =   0.0937500
        k(   17) = (   0.1250000   0.2165064   0.0000000), wk =   0.0468750
        k(   18) = (   0.1250000   0.2886751   0.0000000), wk =   0.0937500
        k(   19) = (   0.1250000   0.3608439   0.0000000), wk =   0.0937500
        k(   20) = (   0.1250000   0.4330127   0.0000000), wk =   0.0937500
        k(   21) = (   0.1250000   0.5051815   0.0000000), wk =   0.0937500
        k(   22) = (   0.1250000   0.5773503   0.0000000), wk =   0.0468750
        k(   23) = (   0.1875000   0.3247595   0.0000000), wk =   0.0468750
        k(   24) = (   0.1875000   0.3969283   0.0000000), wk =   0.0937500
        k(   25) = (   0.1875000   0.4690971   0.0000000), wk =   0.0937500
        k(   26) = (   0.1875000   0.5412659   0.0000000), wk =   0.0937500
        k(   27) = (   0.2500000   0.4330127   0.0000000), wk =   0.0468750
        k(   28) = (   0.2500000   0.5051815   0.0000000), wk =   0.0937500
        k(   29) = (   0.2500000   0.5773503   0.0000000), wk =   0.0468750
        k(   30) = (   0.3125000   0.5412659   0.0000000), wk =   0.0468750

     Dense  grid:   853823 G-vectors     FFT dimensions: (  50,  50, 768)

     Smooth grid:   302525 G-vectors     FFT dimensions: (  36,  36, 540)

     Estimated max dynamical RAM per process >     171.88 MB

     Estimated total dynamical RAM >       4.03 GB

     Initial potential from superposition of free atoms

     starting charge      91.9979, renormalised to      92.0000

     negative rho (up, down):  1.841E-04 0.000E+00


     %%%%%%%%%%%%%%%%%%%%%%%%%%%%%%%%%%%%%%%%%%%%%%%%%%%%%%%%%%%%%%%%%%%%%%%%
     %                                                                      %
     % You are using vdW-DF, which was implemented by the Thonhauser group. %
     % Please cite the following two papers that made this development      %
     % possible and the two reviews that describe the various versions:     %
     %                                                                      %
     %   T. Thonhauser et al., PRL 115, 136402 (2015).                      %
     %   T. Thonhauser et al., PRB 76, 125112 (2007).                       %
     %   K. Berland et al., Rep. Prog. Phys. 78, 066501 (2015).             %
     %   D.C. Langreth et al., J. Phys.: Condens. Matter 21, 084203 (2009). %
     %                                                                      %
     % If you are calculating stress with vdW-DF, please also cite:         %
     %                                                                      %
     %   R. Sabatini et al., J. Phys.: Condens. Matter 24, 424209 (2012).   %
     %                                                                      %
     %%%%%%%%%%%%%%%%%%%%%%%%%%%%%%%%%%%%%%%%%%%%%%%%%%%%%%%%%%%%%%%%%%%%%%%%

     %%%%%%%%%%%%%%%%%%%%%%%%%%%%%%%%%%%%%%%%%%%%%%%%%%%%%%%%%%%%%%%%%%%%%%%%
     %                                                                      %
     %  vdW-DF NEWS:                                                        %
     %                                                                      %
     %  * vdW-DF3 is now available. DOI: 10.1021/acs.jctc.0c00471           %
     %    use with input_dft = 'vdW-DF3-opt1' or 'vdW-DF3-opt2'             %
     %                                                                      %
     %  * Unscreened and range-separated hybrid vdW-DF-cx functionals       %
     %    DOI: 10.1063/1.4986522 and 10.1088/1361-648X/ac2ad2               %
     %    use with input_dft = 'vdW-DF-cx0'    and 'vdW-DF-ahcx'            %
     %  * Unscreened and range-separated hybrid vdW-DF2-b86r functionals    %
     %    DOI: 10.1063/1.4986522 and DOI: 10.1103/PhysRevX.12.041003        %
     %    use with input_dft = 'vdW-DF2-br0' and 'vdW-DF2-ahbr'             %
     %                                                                      %
     %%%%%%%%%%%%%%%%%%%%%%%%%%%%%%%%%%%%%%%%%%%%%%%%%%%%%%%%%%%%%%%%%%%%%%%%


     Starting wfcs are   56 randomized atomic wfcs
     Checking if some PAW data can be deallocated... 

     total cpu time spent up to now is       12.1 secs

     per-process dynamical memory:    79.7 Mb

     Self-consistent Calculation

     iteration #  1     ecut=    80.00 Ry     beta= 0.30
     Davidson diagonalization with overlap
     ethr =  1.00E-02,  avg # of iterations =  4.4

     Threshold (ethr) on eigenvalues was too large:
     Diagonalizing with lowered threshold

     Davidson diagonalization with overlap
     ethr =  4.46E-04,  avg # of iterations =  2.0

     negative rho (up, down):  5.631E-05 0.000E+00

     total cpu time spent up to now is       50.0 secs

     total energy              =   -2326.96507903 Ry
     estimated scf accuracy    <       0.45775545 Ry

     iteration #  2     ecut=    80.00 Ry     beta= 0.30
     Davidson diagonalization with overlap
     ethr =  4.98E-04,  avg # of iterations =  1.1

     negative rho (up, down):  3.704E-05 0.000E+00

     total cpu time spent up to now is       65.5 secs

     total energy              =   -2326.91879136 Ry
     estimated scf accuracy    <       0.23990633 Ry

     iteration #  3     ecut=    80.00 Ry     beta= 0.30
     Davidson diagonalization with overlap
     ethr =  2.61E-04,  avg # of iterations =  2.8

     negative rho (up, down):  1.807E-05 0.000E+00

     total cpu time spent up to now is       84.0 secs

     total energy              =   -2326.92558714 Ry
     estimated scf accuracy    <       0.03049865 Ry

     iteration #  4     ecut=    80.00 Ry     beta= 0.30
     Davidson diagonalization with overlap
     c_bands:  1 eigenvalues not converged
     ethr =  3.32E-05,  avg # of iterations =  8.6

     negative rho (up, down):  8.910E-06 0.000E+00

     total cpu time spent up to now is      105.8 secs

     total energy              =   -2326.92582698 Ry
     estimated scf accuracy    <       0.00907689 Ry

     iteration #  5     ecut=    80.00 Ry     beta= 0.30
     Davidson diagonalization with overlap
     ethr =  9.87E-06,  avg # of iterations =  5.0

     negative rho (up, down):  1.334E-06 0.000E+00

     total cpu time spent up to now is      126.3 secs

     total energy              =   -2326.92535060 Ry
     estimated scf accuracy    <       0.00345341 Ry

     iteration #  6     ecut=    80.00 Ry     beta= 0.30
     Davidson diagonalization with overlap
     ethr =  3.75E-06,  avg # of iterations =  7.7

     negative rho (up, down):  7.206E-07 0.000E+00

     total cpu time spent up to now is      148.5 secs

     total energy              =   -2326.92544426 Ry
     estimated scf accuracy    <       0.00151261 Ry

     iteration #  7     ecut=    80.00 Ry     beta= 0.30
     Davidson diagonalization with overlap
     ethr =  1.64E-06,  avg # of iterations =  2.0

     negative rho (up, down):  5.999E-07 0.000E+00

     total cpu time spent up to now is      166.4 secs

     total energy              =   -2326.92532460 Ry
     estimated scf accuracy    <       0.00142247 Ry

     iteration #  8     ecut=    80.00 Ry     beta= 0.30
     Davidson diagonalization with overlap
     ethr =  1.55E-06,  avg # of iterations =  6.3

     negative rho (up, down):  2.426E-07 0.000E+00

     total cpu time spent up to now is      185.2 secs

     total energy              =   -2326.92525893 Ry
     estimated scf accuracy    <       0.00114352 Ry

     iteration #  9     ecut=    80.00 Ry     beta= 0.30
     Davidson diagonalization with overlap
     ethr =  1.24E-06,  avg # of iterations =  1.4

     negative rho (up, down):  6.895E-03 0.000E+00

     total cpu time spent up to now is      201.4 secs

     total energy              =   -2326.92505216 Ry
     estimated scf accuracy    <       0.00084908 Ry

     iteration # 10     ecut=    80.00 Ry     beta= 0.30
     Davidson diagonalization with overlap
     ethr =  9.23E-07,  avg # of iterations =  7.9

     negative rho (up, down):  4.790E-03 0.000E+00

     total cpu time spent up to now is      221.4 secs

     total energy              =   -2326.92506268 Ry
     estimated scf accuracy    <       0.00043599 Ry

     iteration # 11     ecut=    80.00 Ry     beta= 0.30
     Davidson diagonalization with overlap
     ethr =  4.74E-07,  avg # of iterations =  1.6

     negative rho (up, down):  4.458E-03 0.000E+00

     total cpu time spent up to now is      238.2 secs

     total energy              =   -2326.92507522 Ry
     estimated scf accuracy    <       0.00029222 Ry

     iteration # 12     ecut=    80.00 Ry     beta= 0.30
     Davidson diagonalization with overlap
     ethr =  3.18E-07,  avg # of iterations =  5.3

     negative rho (up, down):  2.598E-03 0.000E+00

     total cpu time spent up to now is      256.0 secs

     total energy              =   -2326.92509377 Ry
     estimated scf accuracy    <       0.00021598 Ry

     iteration # 13     ecut=    80.00 Ry     beta= 0.30
     Davidson diagonalization with overlap
     ethr =  2.35E-07,  avg # of iterations =  4.8

     negative rho (up, down):  3.641E-03 0.000E+00

     total cpu time spent up to now is      273.4 secs

     total energy              =   -2326.92497423 Ry
     estimated scf accuracy    <       0.00017176 Ry

     iteration # 14     ecut=    80.00 Ry     beta= 0.30
     Davidson diagonalization with overlap
     ethr =  1.87E-07,  avg # of iterations =  5.2

     negative rho (up, down):  4.346E-03 0.000E+00

     total cpu time spent up to now is      291.7 secs

     total energy              =   -2326.92497347 Ry
     estimated scf accuracy    <       0.00008924 Ry

     iteration # 15     ecut=    80.00 Ry     beta= 0.30
     Davidson diagonalization with overlap
     ethr =  9.70E-08,  avg # of iterations =  1.0

     negative rho (up, down):  3.446E-03 0.000E+00

     total cpu time spent up to now is      307.4 secs

     total energy              =   -2326.92505521 Ry
     estimated scf accuracy    <       0.00005969 Ry

     iteration # 16     ecut=    80.00 Ry     beta= 0.30
     Davidson diagonalization with overlap
     ethr =  6.49E-08,  avg # of iterations =  4.1

     negative rho (up, down):  2.561E-03 0.000E+00

     total cpu time spent up to now is      327.1 secs

     total energy              =   -2326.92506342 Ry
     estimated scf accuracy    <       0.00001925 Ry

     iteration # 17     ecut=    80.00 Ry     beta= 0.30
     Davidson diagonalization with overlap
     ethr =  2.09E-08,  avg # of iterations =  2.4

     negative rho (up, down):  1.634E-03 0.000E+00

     total cpu time spent up to now is      344.3 secs

     total energy              =   -2326.92507204 Ry
     estimated scf accuracy    <       0.00001025 Ry

     iteration # 18     ecut=    80.00 Ry     beta= 0.30
     Davidson diagonalization with overlap
     ethr =  1.11E-08,  avg # of iterations =  5.1

     negative rho (up, down):  9.464E-04 0.000E+00

     total cpu time spent up to now is      362.1 secs

     total energy              =   -2326.92507636 Ry
     estimated scf accuracy    <       0.00000538 Ry

     iteration # 19     ecut=    80.00 Ry     beta= 0.30
     Davidson diagonalization with overlap
     ethr =  5.85E-09,  avg # of iterations =  5.0

     negative rho (up, down):  5.442E-04 0.000E+00

     total cpu time spent up to now is      381.3 secs

     total energy              =   -2326.92507813 Ry
     estimated scf accuracy    <       0.00000207 Ry

     iteration # 20     ecut=    80.00 Ry     beta= 0.30
     Davidson diagonalization with overlap
     ethr =  2.25E-09,  avg # of iterations =  2.3

     negative rho (up, down):  3.485E-04 0.000E+00

     total cpu time spent up to now is      399.8 secs

     total energy              =   -2326.92507650 Ry
     estimated scf accuracy    <       0.00000072 Ry

     iteration # 21     ecut=    80.00 Ry     beta= 0.30
     Davidson diagonalization with overlap
     ethr =  7.88E-10,  avg # of iterations =  4.1

     negative rho (up, down):  3.021E-04 0.000E+00

     total cpu time spent up to now is      420.5 secs

     total energy              =   -2326.92507827 Ry
     estimated scf accuracy    <       0.00000014 Ry

     iteration # 22     ecut=    80.00 Ry     beta= 0.30
     Davidson diagonalization with overlap
     ethr =  1.57E-10,  avg # of iterations =  2.5

     negative rho (up, down):  2.559E-04 0.000E+00

     total cpu time spent up to now is      440.2 secs

     total energy              =   -2326.92507880 Ry
     estimated scf accuracy    <       0.00000006 Ry

     iteration # 23     ecut=    80.00 Ry     beta= 0.30
     Davidson diagonalization with overlap
     ethr =  6.98E-11,  avg # of iterations =  2.0

     negative rho (up, down):  2.267E-04 0.000E+00

     total cpu time spent up to now is      460.5 secs

     total energy              =   -2326.92507917 Ry
     estimated scf accuracy    <       0.00000001 Ry

     iteration # 24     ecut=    80.00 Ry     beta= 0.30
     Davidson diagonalization with overlap
     ethr =  1.46E-11,  avg # of iterations =  2.4

     negative rho (up, down):  2.177E-04 0.000E+00

     total cpu time spent up to now is      479.3 secs

     End of self-consistent calculation

          k = 0.0000 0.0000 0.0000 ( 37787 PWs)   bands (ev):

   -61.9006 -61.8997 -48.2976 -48.2976 -48.2960 -48.2960 -48.2952 -48.2952
   -48.2938 -48.2938 -48.2524 -48.2524 -48.2509 -48.2509 -48.2496 -48.2496
   -48.2483 -48.2483 -48.2338 -48.2323 -48.2309 -48.2296 -36.0190 -36.0179
   -35.9037 -35.9037 -35.9023 -35.9023 -15.2978 -15.2941 -14.4798 -14.4772
    -6.4518  -6.4282  -3.3965  -3.3649  -3.3649  -3.3588  -3.3587  -3.2907
    -1.6361  -1.5539  -1.0687  -1.0686  -1.0657  -1.0657   0.2259   0.2259
     0.2288   0.2288   2.9445   2.9445   2.9467   2.9468   3.1696

          k = 0.0000 0.0722 0.0000 ( 37755 PWs)   bands (ev):

   -61.8996 -61.8987 -48.2976 -48.2974 -48.2960 -48.2958 -48.2952 -48.2950
   -48.2937 -48.2936 -48.2524 -48.2524 -48.2509 -48.2509 -48.2497 -48.2497
   -48.2483 -48.2483 -48.2337 -48.2322 -48.2308 -48.2295 -36.0168 -36.0157
   -35.9143 -35.9129 -35.9061 -35.9048 -15.2410 -15.2373 -14.4503 -14.4477
    -6.3741  -6.3504  -3.8567  -3.8175  -3.3329  -3.3267  -2.9699  -2.9057
    -1.6663  -1.6001  -1.2612  -1.2521  -1.2155  -1.2124   0.1098   0.1272
     0.3389   0.3414   2.6058   2.6362   2.8958   2.8981   3.3090

          k = 0.0000 0.1443 0.0000 ( 37697 PWs)   bands (ev):

   -61.8969 -61.8960 -48.2975 -48.2968 -48.2960 -48.2953 -48.2952 -48.2945
   -48.2937 -48.2930 -48.2526 -48.2525 -48.2511 -48.2510 -48.2499 -48.2497
   -48.2485 -48.2484 -48.2335 -48.2320 -48.2305 -48.2293 -36.0104 -36.0093
   -35.9444 -35.9430 -35.9130 -35.9117 -15.0747 -15.0710 -14.3640 -14.3614
    -6.1488  -6.1251  -4.3362  -4.3074  -3.2575  -3.2514  -2.7466  -2.6912
    -2.0891  -2.0714  -1.5029  -1.4995  -1.4865  -1.4345  -0.0221   0.0189
     0.5293   0.5312   1.9916   2.0603   2.7959   2.7982   3.6059

          k = 0.0000 0.2165 0.0000 ( 37653 PWs)   bands (ev):

   -61.8928 -61.8919 -48.2975 -48.2960 -48.2960 -48.2951 -48.2945 -48.2937
   -48.2937 -48.2922 -48.2529 -48.2526 -48.2514 -48.2511 -48.2501 -48.2498
   -48.2487 -48.2484 -48.2331 -48.2316 -48.2301 -48.2289 -36.0012 -36.0001
   -35.9889 -35.9875 -35.9234 -35.9220 -14.8117 -14.8082 -14.2276 -14.2250
    -5.8079  -5.7847  -4.7613  -4.7400  -3.2629  -3.2573  -3.2058  -3.1999
    -2.4648  -2.4142  -1.7265  -1.7228  -1.5800  -1.5424  -0.0606  -0.0073
     0.6355   0.6371   1.6048   1.7213   2.7302   2.7328   3.9759

          k = 0.0000 0.2887 0.0000 ( 37721 PWs)   bands (ev):

   -61.8879 -61.8870 -48.2975 -48.2959 -48.2952 -48.2951 -48.2937 -48.2936
   -48.2928 -48.2913 -48.2532 -48.2527 -48.2517 -48.2512 -48.2504 -48.2499
   -48.2490 -48.2485 -48.2326 -48.2311 -48.2297 -48.2284 -36.0419 -36.0405
   -35.9892 -35.9882 -35.9356 -35.9342 -14.4785 -14.4750 -14.0497 -14.0470
    -5.4941  -5.4751  -4.9994  -4.9813  -4.2836  -4.2800  -3.2602  -3.2545
    -2.6421  -2.6060  -1.8237  -1.8037  -1.7700  -1.7660   0.0173   0.0755
     0.6403   0.6418   1.6882   1.8480   2.7311   2.7342   4.4094

          k = 0.0000 0.3608 0.0000 ( 37749 PWs)   bands (ev):

   -61.8830 -61.8821 -48.2975 -48.2959 -48.2951 -48.2943 -48.2936 -48.2927
   -48.2919 -48.2904 -48.2535 -48.2528 -48.2520 -48.2513 -48.2506 -48.2500
   -48.2492 -48.2486 -48.2322 -48.2307 -48.2292 -48.2280 -36.0939 -36.0924
   -35.9779 -35.9769 -35.9478 -35.9464 -14.1301 -14.1267 -13.8301 -13.8274
    -5.6056  -5.5962  -5.2415  -5.2370  -4.7356  -4.7173  -3.4087  -3.4032
    -2.9941  -2.9727  -2.0863  -2.0714  -1.6646  -1.6605   0.2803   0.3316
     0.6171   0.6186   2.0951   2.2753   2.7675   2.7711   4.8706

          k = 0.0000 0.4330 0.0000 ( 37785 PWs)   bands (ev):

   -61.8789 -61.8780 -48.2975 -48.2959 -48.2951 -48.2936 -48.2935 -48.2919
   -48.2911 -48.2897 -48.2538 -48.2529 -48.2523 -48.2514 -48.2508 -48.2501
   -48.2494 -48.2487 -48.2318 -48.2303 -48.2289 -48.2276 -36.1376 -36.1362
   -35.9683 -35.9673 -35.9581 -35.9567 -13.8662 -13.8627 -13.5512 -13.5484
    -6.2033  -6.1993  -5.5836  -5.5748  -4.5413  -4.5318  -3.5678  -3.5625
    -3.2472  -3.2277  -2.2573  -2.2468  -1.5306  -1.5269   0.6314   0.6332
     0.6531   0.6899   2.6158   2.7825   2.8038   2.8080   5.0427

          k = 0.0000 0.5052 0.0000 ( 37822 PWs)   bands (ev):

   -61.8762 -61.8753 -48.2975 -48.2959 -48.2950 -48.2936 -48.2930 -48.2914
   -48.2906 -48.2892 -48.2540 -48.2530 -48.2525 -48.2515 -48.2509 -48.2501
   -48.2496 -48.2488 -48.2315 -48.2301 -48.2286 -48.2273 -36.1667 -36.1652
   -35.9649 -35.9635 -35.9618 -35.9608 -13.7210 -13.7174 -13.2893 -13.2866
    -6.7608  -6.7569  -5.6036  -5.5977  -4.7062  -4.7008  -3.6799  -3.6746
    -3.1258  -3.1084  -2.3832  -2.3770  -1.4433  -1.4398   0.6803   0.6826
     1.0033   1.0237   2.8263   2.8308   3.0910   3.2009   4.6069

          k = 0.0000-0.5774 0.0000 ( 37832 PWs)   bands (ev):

   -61.8752 -61.8743 -48.2975 -48.2960 -48.2950 -48.2936 -48.2928 -48.2913
   -48.2904 -48.2890 -48.2541 -48.2530 -48.2526 -48.2515 -48.2510 -48.2502
   -48.2496 -48.2488 -48.2315 -48.2300 -48.2285 -48.2272 -36.1769 -36.1754
   -35.9673 -35.9659 -35.9596 -35.9586 -13.6735 -13.6698 -13.1826 -13.1801
    -6.9661  -6.9621  -5.5727  -5.5697  -4.8491  -4.8433  -3.7195  -3.7142
    -2.9947  -2.9817  -2.4510  -2.4462  -1.4155  -1.4122   0.7078   0.7103
     1.1563   1.1652   2.8335   2.8382   3.3400   3.3939   4.2825

          k = 0.0625 0.1083 0.0000 ( 37709 PWs)   bands (ev):

   -61.8978 -61.8969 -48.2975 -48.2970 -48.2960 -48.2955 -48.2952 -48.2947
   -48.2937 -48.2932 -48.2526 -48.2524 -48.2511 -48.2509 -48.2498 -48.2497
   -48.2485 -48.2484 -48.2336 -48.2321 -48.2306 -48.2293 -36.0125 -36.0114
   -35.9343 -35.9330 -35.9111 -35.9097 -15.1294 -15.1257 -14.3924 -14.3898
    -6.2222  -6.1984  -4.2088  -4.1774  -3.2864  -3.2802  -2.7708  -2.7080
    -1.8896  -1.8704  -1.5061  -1.4981  -1.4055  -1.3628   0.0418   0.0767
     0.4291   0.4310   2.2256   2.2824   2.7511   2.7545   3.5218

          k = 0.0625 0.1804 0.0000 ( 37703 PWs)   bands (ev):

   -61.8943 -61.8934 -48.2975 -48.2964 -48.2959 -48.2951 -48.2948 -48.2940
   -48.2937 -48.2926 -48.2528 -48.2525 -48.2513 -48.2510 -48.2500 -48.2498
   -48.2486 -48.2484 -48.2332 -48.2317 -48.2303 -48.2290 -36.0045 -36.0035
   -35.9710 -35.9696 -35.9206 -35.9192 -14.9143 -14.9107 -14.2812 -14.2786
    -5.9341  -5.9105  -4.6180  -4.5943  -3.2806  -3.2748  -2.8282  -2.8015
    -2.4676  -2.4454  -1.7657  -1.7480  -1.4396  -1.3942   0.0348   0.0802
     0.4263   0.4337   1.8884   1.9780   2.5759   2.5815   3.8442

          k = 0.0625 0.2526 0.0000 ( 37702 PWs)   bands (ev):

   -61.8899 -61.8889 -48.2975 -48.2959 -48.2956 -48.2951 -48.2940 -48.2936
   -48.2932 -48.2918 -48.2531 -48.2526 -48.2516 -48.2511 -48.2502 -48.2499
   -48.2489 -48.2485 -48.2328 -48.2313 -48.2299 -48.2286 -36.0187 -36.0173
   -35.9938 -35.9928 -35.9330 -35.9316 -14.6142 -14.6107 -14.1251 -14.1224
    -5.5658  -5.5436  -4.9591  -4.9409  -3.8393  -3.8355  -3.2273  -3.2208
    -2.6165  -2.5892  -1.9739  -1.9590  -1.4621  -1.4340  -0.0298   0.0154
     0.4971   0.5206   1.7677   1.8811   2.5399   2.5599   4.2418

          k = 0.0625 0.3248 0.0000 ( 37734 PWs)   bands (ev):

   -61.8850 -61.8841 -48.2974 -48.2959 -48.2950 -48.2947 -48.2936 -48.2931
   -48.2923 -48.2909 -48.2534 -48.2528 -48.2519 -48.2513 -48.2505 -48.2500
   -48.2491 -48.2486 -48.2324 -48.2309 -48.2294 -48.2282 -36.0696 -36.0682
   -35.9826 -35.9816 -35.9463 -35.9450 -14.2658 -14.2624 -13.9315 -13.9287
    -5.4541  -5.4403  -4.9339  -4.9188  -4.7852  -4.7784  -3.4664  -3.4604
    -2.7377  -2.7180  -2.2843  -2.2783  -1.4448  -1.4293   0.0215   0.0651
     0.6476   0.6668   1.8978   2.0193   2.6191   2.6668   4.7017

          k = 0.0625 0.3969 0.0000 ( 37770 PWs)   bands (ev):

   -61.8805 -61.8796 -48.2974 -48.2958 -48.2950 -48.2939 -48.2935 -48.2923
   -48.2915 -48.2901 -48.2537 -48.2529 -48.2522 -48.2514 -48.2507 -48.2501
   -48.2494 -48.2487 -48.2319 -48.2305 -48.2290 -48.2277 -36.1164 -36.1149
   -35.9722 -35.9712 -35.9586 -35.9573 -13.9496 -13.9462 -13.6872 -13.6844
    -5.8192  -5.8149  -5.4874  -5.4787  -4.5682  -4.5533  -3.7117  -3.7054
    -2.9978  -2.9852  -2.5026  -2.4965  -1.3727  -1.3643   0.2259   0.2557
     0.8061   0.8221   2.2034   2.2860   2.7676   2.8602   5.1190

          k = 0.0625 0.4691 0.0000 ( 37798 PWs)   bands (ev):

   -61.8771 -61.8762 -48.2974 -48.2958 -48.2949 -48.2935 -48.2933 -48.2917
   -48.2909 -48.2894 -48.2539 -48.2530 -48.2524 -48.2515 -48.2509 -48.2501
   -48.2495 -48.2488 -48.2316 -48.2301 -48.2287 -48.2274 -36.1519 -36.1504
   -35.9684 -35.9671 -35.9637 -35.9627 -13.7521 -13.7485 -13.4016 -13.3989
    -6.4740  -6.4701  -5.5932  -5.5859  -4.5581  -4.5520  -3.8054  -3.7991
    -3.1131  -3.0996  -2.6074  -2.6025  -1.3303  -1.3261   0.4765   0.4906
     0.9888   1.0033   2.4615   2.4863   3.0101   3.1211   5.0302

          k = 0.0625 0.5413 0.0000 ( 37791 PWs)   bands (ev):

   -61.8752 -61.8743 -48.2974 -48.2958 -48.2949 -48.2935 -48.2929 -48.2914
   -48.2906 -48.2891 -48.2541 -48.2530 -48.2526 -48.2515 -48.2510 -48.2502
   -48.2496 -48.2488 -48.2314 -48.2300 -48.2285 -48.2272 -36.1710 -36.1695
   -35.9733 -35.9720 -35.9596 -35.9586 -13.6589 -13.6552 -13.2063 -13.2037
    -6.8609  -6.8570  -5.5742  -5.5702  -4.7676  -4.7620  -3.8222  -3.8172
    -2.9989  -2.9871  -2.6788  -2.6758  -1.3306  -1.3278   0.6624   0.6666
     1.1208   1.1304   2.5710   2.5760   3.2746   3.3402   4.5684

          k = 0.1250 0.2165 0.0000 ( 37731 PWs)   bands (ev):

   -61.8905 -61.8896 -48.2974 -48.2958 -48.2958 -48.2950 -48.2942 -48.2936
   -48.2934 -48.2920 -48.2530 -48.2526 -48.2515 -48.2511 -48.2502 -48.2499
   -48.2488 -48.2485 -48.2329 -48.2314 -48.2299 -48.2287 -36.0088 -36.0074
   -35.9957 -35.9947 -35.9335 -35.9321 -14.6607 -14.6572 -14.1510 -14.1483
    -5.5971  -5.5739  -4.9269  -4.9084  -3.6977  -3.6932  -3.0232  -3.0018
    -2.8676  -2.8633  -1.9483  -1.9213  -1.3472  -1.3072   0.0380   0.0583
     0.2844   0.3343   2.0964   2.1800   2.1825   2.2220   4.1892

          k = 0.1250 0.2887 0.0000 ( 37723 PWs)   bands (ev):

   -61.8860 -61.8851 -48.2973 -48.2957 -48.2950 -48.2949 -48.2935 -48.2934
   -48.2927 -48.2912 -48.2533 -48.2527 -48.2518 -48.2512 -48.2504 -48.2500
   -48.2490 -48.2486 -48.2325 -48.2310 -48.2295 -48.2283 -36.0524 -36.0510
   -35.9854 -35.9843 -35.9495 -35.9481 -14.3383 -14.3348 -13.9837 -13.9809
    -5.2800  -5.2631  -5.0913  -5.0723  -4.4655  -4.4616  -3.4687  -3.4593
    -2.9579  -2.9529  -2.2094  -2.1946  -1.2155  -1.1854  -0.1819  -0.1476
     0.5806   0.6222   1.8563   1.8806   2.4054   2.5338   4.6178

          k = 0.1250 0.3608 0.0000 ( 37761 PWs)   bands (ev):

   -61.8816 -61.8807 -48.2971 -48.2956 -48.2947 -48.2943 -48.2933 -48.2927
   -48.2919 -48.2905 -48.2536 -48.2529 -48.2521 -48.2514 -48.2506 -48.2501
   -48.2493 -48.2488 -48.2320 -48.2306 -48.2291 -48.2278 -36.0953 -36.0938
   -35.9755 -35.9745 -35.9652 -35.9639 -13.9981 -13.9947 -13.7827 -13.7798
    -5.4783  -5.4695  -5.2658  -5.2615  -4.6774  -4.6584  -3.8550  -3.8483
    -3.0571  -3.0527  -2.6352  -2.6285  -1.0788  -1.0591  -0.1464  -0.1126
     0.8718   0.8967   1.7710   1.8018   2.7077   2.8465   5.0910

          k = 0.1250 0.4330 0.0000 ( 37768 PWs)   bands (ev):

   -61.8777 -61.8768 -48.2970 -48.2955 -48.2946 -48.2937 -48.2932 -48.2921
   -48.2913 -48.2899 -48.2538 -48.2530 -48.2523 -48.2515 -48.2508 -48.2502
   -48.2494 -48.2488 -48.2317 -48.2302 -48.2288 -48.2275 -36.1313 -36.1298
   -35.9806 -35.9792 -35.9653 -35.9643 -13.7481 -13.7447 -13.5195 -13.5167
    -6.0654  -6.0615  -5.5268  -5.5189  -4.4018  -4.3923  -4.0830  -4.0744
    -3.1683  -3.1649  -2.9837  -2.9770  -1.0418  -1.0310   0.1017   0.1269
     1.0695   1.0810   1.8827   1.9102   2.9958   3.1149   5.3621

          k = 0.1250 0.5052 0.0000 ( 37794 PWs)   bands (ev):

   -61.8752 -61.8743 -48.2970 -48.2954 -48.2945 -48.2933 -48.2931 -48.2917
   -48.2909 -48.2895 -48.2540 -48.2531 -48.2525 -48.2516 -48.2509 -48.2502
   -48.2496 -48.2489 -48.2315 -48.2300 -48.2285 -48.2273 -36.1552 -36.1537
   -35.9896 -35.9883 -35.9596 -35.9586 -13.6162 -13.6126 -13.2705 -13.2678
    -6.5687  -6.5648  -5.5588  -5.5536  -4.5722  -4.5669  -4.0335  -4.0272
    -3.2493  -3.2467  -3.0483  -3.0399  -1.0965  -1.0904   0.4457   0.4600
     1.1220   1.1276   2.0557   2.0722   3.2076   3.2780   5.1348

          k = 0.1250 0.5774 0.0000 ( 37780 PWs)   bands (ev):

   -61.8743 -61.8734 -48.2970 -48.2954 -48.2945 -48.2931 -48.2931 -48.2916
   -48.2907 -48.2893 -48.2540 -48.2531 -48.2525 -48.2516 -48.2510 -48.2503
   -48.2496 -48.2489 -48.2314 -48.2299 -48.2284 -48.2272 -36.1636 -36.1621
   -35.9929 -35.9915 -35.9576 -35.9566 -13.5725 -13.5689 -13.1711 -13.1685
    -6.7523  -6.7484  -5.5499  -5.5468  -4.6869  -4.6813  -4.0291  -4.0243
    -3.2783  -3.2761  -3.0021  -2.9952  -1.1351  -1.1300   0.6534   0.6567
     1.0730   1.0791   2.1460   2.1490   3.2865   3.3294   4.9287

          k = 0.1875 0.3248 0.0000 ( 37725 PWs)   bands (ev):

   -61.8819 -61.8810 -48.2970 -48.2954 -48.2946 -48.2945 -48.2932 -48.2929
   -48.2921 -48.2907 -48.2535 -48.2529 -48.2521 -48.2514 -48.2506 -48.2501
   -48.2492 -48.2488 -48.2321 -48.2306 -48.2292 -48.2279 -36.0857 -36.0843
   -35.9776 -35.9765 -35.9688 -35.9675 -14.0134 -14.0101 -13.8174 -13.8145
    -5.3471  -5.3362  -5.0968  -5.0930  -4.7666  -4.7471  -3.8590  -3.8510
    -3.3373  -3.3333  -2.5153  -2.5098  -0.9147  -0.8878  -0.3255  -0.2924
     0.8660   0.8984   1.5951   1.6061   2.6899   2.8409   5.0711

          k = 0.1875 0.3969 0.0000 ( 37753 PWs)   bands (ev):

   -61.8781 -61.8772 -48.2967 -48.2952 -48.2943 -48.2940 -48.2929 -48.2925
   -48.2917 -48.2902 -48.2538 -48.2530 -48.2523 -48.2515 -48.2508 -48.2502
   -48.2494 -48.2489 -48.2317 -48.2302 -48.2288 -48.2275 -36.1145 -36.1130
   -35.9929 -35.9915 -35.9661 -35.9651 -13.7104 -13.7071 -13.6199 -13.6169
    -5.6965  -5.6927  -5.4494  -5.4414  -4.3644  -4.3482  -4.2098  -4.2034
    -3.6630  -3.6594  -2.9122  -2.9103  -0.7032  -0.6857  -0.2541  -0.2273
     1.0954   1.1128   1.5088   1.5299   2.9959   3.1196   5.4982

          k = 0.1875 0.4691 0.0000 ( 37759 PWs)   bands (ev):

   -61.8752 -61.8743 -48.2965 -48.2950 -48.2941 -48.2937 -48.2926 -48.2921
   -48.2913 -48.2899 -48.2539 -48.2531 -48.2524 -48.2516 -48.2509 -48.2503
   -48.2495 -48.2489 -48.2315 -48.2300 -48.2285 -48.2273 -36.1354 -36.1339
   -36.0099 -36.0085 -35.9596 -35.9586 -13.5500 -13.5466 -13.3576 -13.3547
    -6.1808  -6.1770  -5.5155  -5.5100  -4.4313  -4.4258  -4.1246  -4.1152
    -3.8884  -3.8853  -3.1826  -3.1796  -0.7505  -0.7407   0.0929   0.1099
     1.1419   1.1480   1.6564   1.6834   3.1897   3.2571   5.5538

          k = 0.1875 0.5413 0.0000 ( 37793 PWs)   bands (ev):

   -61.8736 -61.8727 -48.2964 -48.2948 -48.2940 -48.2935 -48.2925 -48.2919
   -48.2912 -48.2897 -48.2540 -48.2532 -48.2525 -48.2517 -48.2510 -48.2503
   -48.2496 -48.2490 -48.2313 -48.2298 -48.2284 -48.2271 -36.1463 -36.1449
   -36.0196 -36.0182 -35.9560 -35.9550 -13.4724 -13.4689 -13.1880 -13.1852
    -6.4582  -6.4543  -5.5432  -5.5395  -4.5247  -4.5194  -4.1651  -4.1602
    -3.9629  -3.9604  -3.2040  -3.2002  -0.8369  -0.8301   0.4652   0.4720
     0.9959   0.9994   1.8724   1.8894   3.2048   3.2359   5.4804

          k = 0.2500 0.4330 0.0000 ( 37711 PWs)   bands (ev):

   -61.8752 -61.8743 -48.2962 -48.2947 -48.2940 -48.2937 -48.2925 -48.2922
   -48.2915 -48.2901 -48.2538 -48.2532 -48.2524 -48.2517 -48.2509 -48.2503
   -48.2495 -48.2490 -48.2315 -48.2300 -48.2285 -48.2273 -36.1250 -36.1235
   -36.0205 -36.0191 -35.9596 -35.9586 -13.4882 -13.4848 -13.4279 -13.4249
    -5.9603  -5.9565  -5.4839  -5.4784  -4.4135  -4.4070  -4.2517  -4.2484
    -4.0512  -4.0396  -3.2780  -3.2759  -0.3470  -0.3280  -0.3152  -0.3075
     1.1351   1.1450   1.5301   1.5597   3.1899   3.2549   5.7470

          k = 0.2500 0.5052 0.0000 ( 37776 PWs)   bands (ev):

   -61.8733 -61.8724 -48.2959 -48.2943 -48.2940 -48.2934 -48.2925 -48.2919
   -48.2916 -48.2901 -48.2539 -48.2533 -48.2524 -48.2518 -48.2510 -48.2504
   -48.2496 -48.2490 -48.2313 -48.2298 -48.2284 -48.2271 -36.1275 -36.1260
   -36.0436 -36.0422 -35.9552 -35.9542 -13.3785 -13.3751 -13.2409 -13.2379
    -6.1080  -6.1043  -5.5349  -5.5308  -4.6713  -4.6677  -4.3903  -4.3846
    -3.9744  -3.9688  -3.5156  -3.5137  -0.4418  -0.4330   0.0559   0.0614
     0.9595   0.9624   1.8191   1.8531   3.1453   3.1586   5.6805

          k = 0.2500 0.5774 0.0000 ( 37791 PWs)   bands (ev):

   -61.8726 -61.8717 -48.2957 -48.2941 -48.2940 -48.2932 -48.2925 -48.2917
   -48.2916 -48.2902 -48.2539 -48.2533 -48.2524 -48.2519 -48.2510 -48.2504
   -48.2497 -48.2490 -48.2312 -48.2298 -48.2283 -48.2270 -36.1270 -36.1255
   -36.0531 -36.0517 -35.9536 -35.9527 -13.3398 -13.3364 -13.1710 -13.1680
    -6.1509  -6.1472  -5.5649  -5.5611  -4.8243  -4.8207  -4.2101  -4.2064
    -4.1889  -4.1861  -3.5162  -3.5144  -0.4916  -0.4848   0.3157   0.3186
     0.7526   0.7555   2.0461   2.0645   3.0108   3.0191   5.6194

          k = 0.3125 0.5413 0.0000 ( 37789 PWs)   bands (ev):

   -61.8722 -61.8713 -48.2952 -48.2944 -48.2937 -48.2928 -48.2927 -48.2920
   -48.2913 -48.2905 -48.2538 -48.2534 -48.2523 -48.2519 -48.2511 -48.2504
   -48.2497 -48.2490 -48.2312 -48.2297 -48.2283 -48.2270 -36.1095 -36.1080
   -36.0756 -36.0742 -35.9528 -35.9518 -13.2604 -13.2570 -13.1984 -13.1954
    -5.8467  -5.8430  -5.5747  -5.5707  -5.2639  -5.2603  -4.2235  -4.2184
    -3.8850  -3.8833  -3.8799  -3.8777  -0.1550  -0.1463   0.0243   0.0293
     0.6535   0.6557   2.2474   2.2790   2.8199   2.8367   5.5759

     the Fermi energy is    -0.3013 ev

!    total energy              =   -2326.92507912 Ry
     total all-electron energy =    -35628.672908 Ry
     estimated scf accuracy    <          1.3E-09 Ry
     smearing contrib. (-TS)   =       0.00087978 Ry
     internal energy E=F+TS    =   -2326.92595890 Ry

     The total energy is F=E-TS. E is the sum of the following terms:
     one-electron contribution =  -24497.17268814 Ry
     hartree contribution      =   12236.79985259 Ry
     xc contribution           =    -152.42414156 Ry
     ewald contribution        =   11096.38541930 Ry
     one-center paw contrib.   =   -1010.51440110 Ry

     convergence has been achieved in  24 iterations

     Writing all to output data dir ./tmp/cleave_012/mose2_cleave_012.save/ :
     XML data file, charge density, pseudopotentials, collected wavefunctions

     init_run     :     11.71s CPU     11.91s WALL (       1 calls)
     electrons    :    456.58s CPU    467.18s WALL (       1 calls)

     Called by init_run:
     wfcinit      :      5.33s CPU      5.37s WALL (       1 calls)
     potinit      :      5.72s CPU      5.77s WALL (       1 calls)
     hinit0       :      0.05s CPU      0.06s WALL (       1 calls)

     Called by electrons:
     c_bands      :    379.89s CPU    384.80s WALL (      25 calls)
     sum_band     :     50.41s CPU     53.10s WALL (      25 calls)
     v_of_rho     :     15.19s CPU     16.05s WALL (      25 calls)
     newd         :      9.43s CPU     11.58s WALL (      25 calls)
     PAW_pot      :      1.54s CPU      1.58s WALL (      25 calls)
     mix_rho      :      6.00s CPU      6.05s WALL (      25 calls)
     vdW_kernel   :      5.27s CPU      5.27s WALL (       1 calls)

     Called by c_bands:
     init_us_2    :      2.84s CPU      2.86s WALL (    1530 calls)
     cegterg      :    370.22s CPU    374.93s WALL (     750 calls)

     Called by *egterg:
     cdiaghg      :     11.07s CPU     11.09s WALL (    3636 calls)
     h_psi        :    156.75s CPU    158.11s WALL (    3696 calls)
     s_psi        :     28.83s CPU     28.85s WALL (    3696 calls)
     g_psi        :      0.47s CPU      0.47s WALL (    2916 calls)

     Called by h_psi:
     h_psi:calbec :     48.24s CPU     48.98s WALL (    3696 calls)
     vloc_psi     :     73.59s CPU     74.20s WALL (    3696 calls)
                                        0.00s GPU  (    3696 calls)
     add_vuspsi   :     34.40s CPU     34.43s WALL (    3696 calls)

     General routines
     calbec       :     68.99s CPU     70.00s WALL (    4446 calls)
     fft          :      6.31s CPU      6.47s WALL (    1574 calls)
     ffts         :      2.19s CPU      2.20s WALL (    2879 calls)
     fftw         :     83.01s CPU     83.71s WALL (  225958 calls)
     interpolate  :      0.11s CPU      0.11s WALL (      25 calls)

     Parallel routines

     PWSCF        :   7m48.85s CPU   7m59.83s WALL


   This run was terminated on:  10:28:52  20Jun2026            

=------------------------------------------------------------------------------=
   JOB DONE.
=------------------------------------------------------------------------------=
Note: The following floating-point exceptions are signalling: IEEE_UNDERFLOW_FLAG IEEE_DENORMAL
Note: The following floating-point exceptions are signalling: IEEE_UNDERFLOW_FLAG IEEE_DENORMAL
Note: The following floating-point exceptions are signalling: IEEE_UNDERFLOW_FLAG IEEE_DENORMAL
Note: The following floating-point exceptions are signalling: IEEE_UNDERFLOW_FLAG IEEE_DENORMAL
Note: The following floating-point exceptions are signalling: IEEE_UNDERFLOW_FLAG IEEE_DENORMAL
Note: The following floating-point exceptions are signalling: IEEE_UNDERFLOW_FLAG IEEE_DENORMAL
Note: The following floating-point exceptions are signalling: IEEE_UNDERFLOW_FLAG IEEE_DENORMAL
Note: The following floating-point exceptions are signalling: IEEE_UNDERFLOW_FLAG IEEE_DENORMAL
Note: The following floating-point exceptions are signalling: IEEE_UNDERFLOW_FLAG IEEE_DENORMAL
Note: The following floating-point exceptions are signalling: IEEE_UNDERFLOW_FLAG IEEE_DENORMAL
Note: The following floating-point exceptions are signalling: IEEE_UNDERFLOW_FLAG IEEE_DENORMAL
Note: The following floating-point exceptions are signalling: IEEE_UNDERFLOW_FLAG IEEE_DENORMAL
Note: The following floating-point exceptions are signalling: IEEE_UNDERFLOW_FLAG IEEE_DENORMAL
Note: The following floating-point exceptions are signalling: IEEE_UNDERFLOW_FLAG IEEE_DENORMAL
Note: The following floating-point exceptions are signalling: IEEE_UNDERFLOW_FLAG IEEE_DENORMAL
Note: The following floating-point exceptions are signalling: IEEE_UNDERFLOW_FLAG IEEE_DENORMAL
Note: The following floating-point exceptions are signalling: IEEE_UNDERFLOW_FLAG IEEE_DENORMAL
Note: The following floating-point exceptions are signalling: IEEE_UNDERFLOW_FLAG IEEE_DENORMAL
Note: The following floating-point exceptions are signalling: IEEE_UNDERFLOW_FLAG IEEE_DENORMAL
Note: The following floating-point exceptions are signalling: IEEE_UNDERFLOW_FLAG IEEE_DENORMAL
Note: The following floating-point exceptions are signalling: IEEE_UNDERFLOW_FLAG IEEE_DENORMAL
Note: The following floating-point exceptions are signalling: IEEE_UNDERFLOW_FLAG IEEE_DENORMAL
Note: The following floating-point exceptions are signalling: IEEE_UNDERFLOW_FLAG IEEE_DENORMAL
Note: The following floating-point exceptions are signalling: IEEE_UNDERFLOW_FLAG IEEE_DENORMAL
