
     Program PWSCF v.7.5 starts on 20Jun2026 at 10:13:15 

     This program is part of the open-source Quantum ESPRESSO suite
     for quantum simulation of materials; please cite
         "P. Giannozzi et al., J. Phys.:Condens. Matter 21 395502 (2009);
         "P. Giannozzi et al., J. Phys.:Condens. Matter 29 465901 (2017);
         "P. Giannozzi et al., J. Chem. Phys. 152 154105 (2020);
          URL http://www.quantum-espresso.org", 
     in publications or presentations arising from this work. More details at
     http://www.quantum-espresso.org/quote

     Parallel version (MPI), running on    24 processors

     MPI processes distributed on     1 nodes
     4807 MiB available memory on the printing compute node when the environment starts

     Waiting for input...
     Reading input from standard input

     Current dimensions of program PWSCF are:
     Max number of different atomic species (ntypx) = 10
     Max number of k-points (npk) =  40000
     Max angular momentum in pseudopotentials (lmaxx) =  4
     file Mo.pbe-spn-kjpaw_psl.1.0.0.UPF: wavefunction(s)  4S 4D renormalized
     file Se.pbe-dn-kjpaw_psl.1.0.0.UPF: wavefunction(s)  4S 4P 3D renormalized

     IMPORTANT: XC functional enforced from input :
     Exchange-correlation= VDW-DF2-B86R
                           (   1   4  26   0   2   0   0)
     Any further DFT definition will be discarded
     Please, verify this is what you really want


     R & G space division:  proc/nbgrp/npool/nimage =      24
     Subspace diagonalization in iterative solution of the eigenvalue problem:
     a serial algorithm will be used


     Parallelization info
     --------------------
     sticks:   dense  smooth     PW     G-vecs:    dense   smooth      PW
     Min          69      35     10                35537    12585    1924
     Max          70      36     11                35620    12648    1981
     Sum        1675     847    241               853823   302525   46513

     Using Slab Decomposition



     bravais-lattice index     =            4
     lattice parameter (alat)  =       6.1794  a.u.
     unit-cell volume          =    3124.5879 (a.u.)^3
     number of atoms/cell      =            6
     number of atomic types    =            2
     number of electrons       =        92.00
     number of Kohn-Sham states=           55
     kinetic-energy cutoff     =      80.0000  Ry
     charge density cutoff     =     640.0000  Ry
     scf convergence threshold =      1.0E-08
     mixing beta               =       0.3000
     number of iterations used =            8  local-TF  mixing
     Exchange-correlation= VDW-DF2-B86R
                           (   1   4  26   0   2   0   0)

     celldm(1)=   6.179404  celldm(2)=   0.000000  celldm(3)=  15.290520
     celldm(4)=   0.000000  celldm(5)=   0.000000  celldm(6)=   0.000000

     crystal axes: (cart. coord. in units of alat)
               a(1) = (   1.000000   0.000000   0.000000 )  
               a(2) = (  -0.500000   0.866025   0.000000 )  
               a(3) = (   0.000000   0.000000  15.290520 )  

     reciprocal axes: (cart. coord. in units 2 pi/alat)
               b(1) = (  1.000000  0.577350 -0.000000 )  
               b(2) = (  0.000000  1.154701  0.000000 )  
               b(3) = (  0.000000 -0.000000  0.065400 )  


     PseudoPot. # 1 for Mo read from file:
     ./pseudo/Mo.pbe-spn-kjpaw_psl.1.0.0.UPF
     MD5 check sum: 4396e0c640fcce5c25f020efccf1ab12
     Pseudo is Projector augmented-wave + core cor, Zval = 14.0
     Generated using &quot;atomic&quot; code by A. Dal Corso  v.6.3
     Shape of augmentation charge: PSQ
     Using radial grid of 1229 points,  6 beta functions with: 
                l(1) =   0
                l(2) =   0
                l(3) =   1
                l(4) =   1
                l(5) =   2
                l(6) =   2
     Q(r) pseudized with 0 coefficients 


     PseudoPot. # 2 for Se read from file:
     ./pseudo/Se.pbe-dn-kjpaw_psl.1.0.0.UPF
     MD5 check sum: ac240dd2bae32a30e0bf3a38df9c8785
     Pseudo is Projector augmented-wave + core cor, Zval = 16.0
     Generated using &quot;atomic&quot; code by A. Dal Corso  v.6.3
     Shape of augmentation charge: PSQ
     Using radial grid of 1211 points,  6 beta functions with: 
                l(1) =   0
                l(2) =   0
                l(3) =   1
                l(4) =   1
                l(5) =   2
                l(6) =   2
     Q(r) pseudized with 0 coefficients 


     atomic species   valence    mass     pseudopotential
     Mo               14.00    95.96000     Mo( 1.00)
     Se               16.00    78.96000     Se( 1.00)

      6 Sym. Ops. (no inversion) found



   Cartesian axes

     site n.     atom                  positions (alat units)
         1        Se     tau(   1) = (  -0.0000005   0.5773506   6.1238532  )
         2        Mo     tau(   2) = (   0.0000000   0.0000000   6.6502752  )
         3        Se     tau(   3) = (   0.5000005   0.2886748   7.1775994  )
         4        Se     tau(   4) = (  -0.0000005   0.5773506   8.7851223  )
         5        Mo     tau(   5) = (   0.5000005   0.2886748   9.3123089  )
         6        Se     tau(   6) = (   0.0000000   0.0000000   9.8394495  )

     number of k points=    30  Methfessel-Paxton smearing, width (Ry)=  0.0200
                       cart. coord. in units 2pi/alat
        k(    1) = (   0.0000000   0.0000000   0.0000000), wk =   0.0078125
        k(    2) = (   0.0000000   0.0721688   0.0000000), wk =   0.0468750
        k(    3) = (   0.0000000   0.1443376   0.0000000), wk =   0.0468750
        k(    4) = (   0.0000000   0.2165064   0.0000000), wk =   0.0468750
        k(    5) = (   0.0000000   0.2886751   0.0000000), wk =   0.0468750
        k(    6) = (   0.0000000   0.3608439   0.0000000), wk =   0.0468750
        k(    7) = (   0.0000000   0.4330127   0.0000000), wk =   0.0468750
        k(    8) = (   0.0000000   0.5051815   0.0000000), wk =   0.0468750
        k(    9) = (   0.0000000  -0.5773503   0.0000000), wk =   0.0234375
        k(   10) = (   0.0625000   0.1082532   0.0000000), wk =   0.0468750
        k(   11) = (   0.0625000   0.1804220   0.0000000), wk =   0.0937500
        k(   12) = (   0.0625000   0.2525907   0.0000000), wk =   0.0937500
        k(   13) = (   0.0625000   0.3247595   0.0000000), wk =   0.0937500
        k(   14) = (   0.0625000   0.3969283   0.0000000), wk =   0.0937500
        k(   15) = (   0.0625000   0.4690971   0.0000000), wk =   0.0937500
        k(   16) = (   0.0625000   0.5412659   0.0000000), wk =   0.0937500
        k(   17) = (   0.1250000   0.2165064   0.0000000), wk =   0.0468750
        k(   18) = (   0.1250000   0.2886751   0.0000000), wk =   0.0937500
        k(   19) = (   0.1250000   0.3608439   0.0000000), wk =   0.0937500
        k(   20) = (   0.1250000   0.4330127   0.0000000), wk =   0.0937500
        k(   21) = (   0.1250000   0.5051815   0.0000000), wk =   0.0937500
        k(   22) = (   0.1250000   0.5773503   0.0000000), wk =   0.0468750
        k(   23) = (   0.1875000   0.3247595   0.0000000), wk =   0.0468750
        k(   24) = (   0.1875000   0.3969283   0.0000000), wk =   0.0937500
        k(   25) = (   0.1875000   0.4690971   0.0000000), wk =   0.0937500
        k(   26) = (   0.1875000   0.5412659   0.0000000), wk =   0.0937500
        k(   27) = (   0.2500000   0.4330127   0.0000000), wk =   0.0468750
        k(   28) = (   0.2500000   0.5051815   0.0000000), wk =   0.0937500
        k(   29) = (   0.2500000   0.5773503   0.0000000), wk =   0.0468750
        k(   30) = (   0.3125000   0.5412659   0.0000000), wk =   0.0468750

     Dense  grid:   853823 G-vectors     FFT dimensions: (  50,  50, 768)

     Smooth grid:   302525 G-vectors     FFT dimensions: (  36,  36, 540)

     Estimated max dynamical RAM per process >     171.88 MB

     Estimated total dynamical RAM >       4.03 GB

     Initial potential from superposition of free atoms

     starting charge      91.9979, renormalised to      92.0000

     negative rho (up, down):  1.847E-04 0.000E+00


     %%%%%%%%%%%%%%%%%%%%%%%%%%%%%%%%%%%%%%%%%%%%%%%%%%%%%%%%%%%%%%%%%%%%%%%%
     %                                                                      %
     % You are using vdW-DF, which was implemented by the Thonhauser group. %
     % Please cite the following two papers that made this development      %
     % possible and the two reviews that describe the various versions:     %
     %                                                                      %
     %   T. Thonhauser et al., PRL 115, 136402 (2015).                      %
     %   T. Thonhauser et al., PRB 76, 125112 (2007).                       %
     %   K. Berland et al., Rep. Prog. Phys. 78, 066501 (2015).             %
     %   D.C. Langreth et al., J. Phys.: Condens. Matter 21, 084203 (2009). %
     %                                                                      %
     % If you are calculating stress with vdW-DF, please also cite:         %
     %                                                                      %
     %   R. Sabatini et al., J. Phys.: Condens. Matter 24, 424209 (2012).   %
     %                                                                      %
     %%%%%%%%%%%%%%%%%%%%%%%%%%%%%%%%%%%%%%%%%%%%%%%%%%%%%%%%%%%%%%%%%%%%%%%%

     %%%%%%%%%%%%%%%%%%%%%%%%%%%%%%%%%%%%%%%%%%%%%%%%%%%%%%%%%%%%%%%%%%%%%%%%
     %                                                                      %
     %  vdW-DF NEWS:                                                        %
     %                                                                      %
     %  * vdW-DF3 is now available. DOI: 10.1021/acs.jctc.0c00471           %
     %    use with input_dft = 'vdW-DF3-opt1' or 'vdW-DF3-opt2'             %
     %                                                                      %
     %  * Unscreened and range-separated hybrid vdW-DF-cx functionals       %
     %    DOI: 10.1063/1.4986522 and 10.1088/1361-648X/ac2ad2               %
     %    use with input_dft = 'vdW-DF-cx0'    and 'vdW-DF-ahcx'            %
     %  * Unscreened and range-separated hybrid vdW-DF2-b86r functionals    %
     %    DOI: 10.1063/1.4986522 and DOI: 10.1103/PhysRevX.12.041003        %
     %    use with input_dft = 'vdW-DF2-br0' and 'vdW-DF2-ahbr'             %
     %                                                                      %
     %%%%%%%%%%%%%%%%%%%%%%%%%%%%%%%%%%%%%%%%%%%%%%%%%%%%%%%%%%%%%%%%%%%%%%%%


     Starting wfcs are   56 randomized atomic wfcs
     Checking if some PAW data can be deallocated... 

     total cpu time spent up to now is       12.2 secs

     per-process dynamical memory:    79.7 Mb

     Self-consistent Calculation

     iteration #  1     ecut=    80.00 Ry     beta= 0.30
     Davidson diagonalization with overlap
     ethr =  1.00E-02,  avg # of iterations =  4.3

     Threshold (ethr) on eigenvalues was too large:
     Diagonalizing with lowered threshold

     Davidson diagonalization with overlap
     ethr =  4.45E-04,  avg # of iterations =  2.0

     negative rho (up, down):  4.125E-05 0.000E+00

     total cpu time spent up to now is       50.3 secs

     total energy              =   -2326.95998089 Ry
     estimated scf accuracy    <       0.45707305 Ry

     iteration #  2     ecut=    80.00 Ry     beta= 0.30
     Davidson diagonalization with overlap
     ethr =  4.97E-04,  avg # of iterations =  1.1

     negative rho (up, down):  2.812E-05 0.000E+00

     total cpu time spent up to now is       65.9 secs

     total energy              =   -2326.92232904 Ry
     estimated scf accuracy    <       0.21077595 Ry

     iteration #  3     ecut=    80.00 Ry     beta= 0.30
     Davidson diagonalization with overlap
     ethr =  2.29E-04,  avg # of iterations =  3.9

     negative rho (up, down):  1.691E-05 0.000E+00

     total cpu time spent up to now is       84.9 secs

     total energy              =   -2326.92564709 Ry
     estimated scf accuracy    <       0.03084359 Ry

     iteration #  4     ecut=    80.00 Ry     beta= 0.30
     Davidson diagonalization with overlap
     ethr =  3.35E-05,  avg # of iterations =  8.1

     negative rho (up, down):  8.844E-06 0.000E+00

     total cpu time spent up to now is      107.9 secs

     total energy              =   -2326.92650744 Ry
     estimated scf accuracy    <       0.00767487 Ry

     iteration #  5     ecut=    80.00 Ry     beta= 0.30
     Davidson diagonalization with overlap
     ethr =  8.34E-06,  avg # of iterations =  6.7

     negative rho (up, down):  1.073E-06 0.000E+00

     total cpu time spent up to now is      129.1 secs

     total energy              =   -2326.92596294 Ry
     estimated scf accuracy    <       0.00308279 Ry

     iteration #  6     ecut=    80.00 Ry     beta= 0.30
     Davidson diagonalization with overlap
     ethr =  3.35E-06,  avg # of iterations =  6.5

     negative rho (up, down):  6.602E-07 0.000E+00

     total cpu time spent up to now is      151.8 secs

     total energy              =   -2326.92610837 Ry
     estimated scf accuracy    <       0.00149604 Ry

     iteration #  7     ecut=    80.00 Ry     beta= 0.30
     Davidson diagonalization with overlap
     ethr =  1.63E-06,  avg # of iterations =  1.5

     negative rho (up, down):  6.170E-07 0.000E+00

     total cpu time spent up to now is      168.7 secs

     total energy              =   -2326.92592442 Ry
     estimated scf accuracy    <       0.00148157 Ry

     iteration #  8     ecut=    80.00 Ry     beta= 0.30
     Davidson diagonalization with overlap
     ethr =  1.61E-06,  avg # of iterations =  2.7

     negative rho (up, down):  4.450E-06 0.000E+00

     total cpu time spent up to now is      186.9 secs

     total energy              =   -2326.92582717 Ry
     estimated scf accuracy    <       0.00105896 Ry

     iteration #  9     ecut=    80.00 Ry     beta= 0.30
     Davidson diagonalization with overlap
     ethr =  1.15E-06,  avg # of iterations =  6.3

     negative rho (up, down):  6.392E-03 0.000E+00

     total cpu time spent up to now is      205.7 secs

     total energy              =   -2326.92565350 Ry
     estimated scf accuracy    <       0.00075400 Ry

     iteration # 10     ecut=    80.00 Ry     beta= 0.30
     Davidson diagonalization with overlap
     ethr =  8.20E-07,  avg # of iterations =  7.9

     negative rho (up, down):  3.954E-03 0.000E+00

     total cpu time spent up to now is      225.8 secs

     total energy              =   -2326.92572191 Ry
     estimated scf accuracy    <       0.00036206 Ry

     iteration # 11     ecut=    80.00 Ry     beta= 0.30
     Davidson diagonalization with overlap
     ethr =  3.94E-07,  avg # of iterations =  2.1

     negative rho (up, down):  5.057E-03 0.000E+00

     total cpu time spent up to now is      242.5 secs

     total energy              =   -2326.92570231 Ry
     estimated scf accuracy    <       0.00028551 Ry

     iteration # 12     ecut=    80.00 Ry     beta= 0.30
     Davidson diagonalization with overlap
     ethr =  3.10E-07,  avg # of iterations =  5.9

     negative rho (up, down):  2.246E-03 0.000E+00

     total cpu time spent up to now is      260.7 secs

     total energy              =   -2326.92572322 Ry
     estimated scf accuracy    <       0.00020896 Ry

     iteration # 13     ecut=    80.00 Ry     beta= 0.30
     Davidson diagonalization with overlap
     ethr =  2.27E-07,  avg # of iterations =  5.4

     negative rho (up, down):  3.513E-03 0.000E+00

     total cpu time spent up to now is      278.4 secs

     total energy              =   -2326.92559670 Ry
     estimated scf accuracy    <       0.00017477 Ry

     iteration # 14     ecut=    80.00 Ry     beta= 0.30
     Davidson diagonalization with overlap
     ethr =  1.90E-07,  avg # of iterations =  5.7

     negative rho (up, down):  4.475E-03 0.000E+00

     total cpu time spent up to now is      296.6 secs

     total energy              =   -2326.92560292 Ry
     estimated scf accuracy    <       0.00008883 Ry

     iteration # 15     ecut=    80.00 Ry     beta= 0.30
     Davidson diagonalization with overlap
     ethr =  9.66E-08,  avg # of iterations =  1.5

     negative rho (up, down):  3.373E-03 0.000E+00

     total cpu time spent up to now is      313.6 secs

     total energy              =   -2326.92566356 Ry
     estimated scf accuracy    <       0.00005835 Ry

     iteration # 16     ecut=    80.00 Ry     beta= 0.30
     Davidson diagonalization with overlap
     ethr =  6.34E-08,  avg # of iterations =  6.7

     negative rho (up, down):  2.613E-03 0.000E+00

     total cpu time spent up to now is      335.3 secs

     total energy              =   -2326.92568639 Ry
     estimated scf accuracy    <       0.00001603 Ry

     iteration # 17     ecut=    80.00 Ry     beta= 0.30
     Davidson diagonalization with overlap
     ethr =  1.74E-08,  avg # of iterations =  4.9

     negative rho (up, down):  1.880E-03 0.000E+00

     total cpu time spent up to now is      354.4 secs

     total energy              =   -2326.92569249 Ry
     estimated scf accuracy    <       0.00000914 Ry

     iteration # 18     ecut=    80.00 Ry     beta= 0.30
     Davidson diagonalization with overlap
     ethr =  9.94E-09,  avg # of iterations =  2.7

     negative rho (up, down):  7.502E-04 0.000E+00

     total cpu time spent up to now is      371.4 secs

     total energy              =   -2326.92570752 Ry
     estimated scf accuracy    <       0.00000404 Ry

     iteration # 19     ecut=    80.00 Ry     beta= 0.30
     Davidson diagonalization with overlap
     ethr =  4.39E-09,  avg # of iterations =  4.7

     negative rho (up, down):  3.611E-04 0.000E+00

     total cpu time spent up to now is      394.3 secs

     total energy              =   -2326.92571017 Ry
     estimated scf accuracy    <       0.00000067 Ry

     iteration # 20     ecut=    80.00 Ry     beta= 0.30
     Davidson diagonalization with overlap
     ethr =  7.23E-10,  avg # of iterations =  3.0

     negative rho (up, down):  2.719E-04 0.000E+00

     total cpu time spent up to now is      414.4 secs

     total energy              =   -2326.92571043 Ry
     estimated scf accuracy    <       0.00000024 Ry

     iteration # 21     ecut=    80.00 Ry     beta= 0.30
     Davidson diagonalization with overlap
     ethr =  2.64E-10,  avg # of iterations =  2.0

     negative rho (up, down):  2.391E-04 0.000E+00

     total cpu time spent up to now is      435.6 secs

     total energy              =   -2326.92571056 Ry
     estimated scf accuracy    <       0.00000004 Ry

     iteration # 22     ecut=    80.00 Ry     beta= 0.30
     Davidson diagonalization with overlap
     ethr =  4.65E-11,  avg # of iterations =  2.4

     negative rho (up, down):  2.181E-04 0.000E+00

     total cpu time spent up to now is      455.7 secs

     End of self-consistent calculation

          k = 0.0000 0.0000 0.0000 ( 37787 PWs)   bands (ev):

   -61.8999 -61.8990 -48.2972 -48.2972 -48.2955 -48.2955 -48.2946 -48.2946
   -48.2930 -48.2930 -48.2520 -48.2520 -48.2504 -48.2504 -48.2491 -48.2491
   -48.2476 -48.2476 -48.2335 -48.2318 -48.2303 -48.2289 -36.0183 -36.0173
   -35.9030 -35.9030 -35.9016 -35.9016 -15.2973 -15.2932 -14.4794 -14.4759
    -6.4554  -6.4239  -3.4098  -3.3643  -3.3643  -3.3581  -3.3581  -3.2774
    -1.6428  -1.5443  -1.0680  -1.0680  -1.0651  -1.0651   0.2267   0.2268
     0.2297   0.2297   2.9453   2.9453   2.9476   2.9477   3.2525

          k = 0.0000 0.0722 0.0000 ( 37755 PWs)   bands (ev):

   -61.8989 -61.8980 -48.2972 -48.2970 -48.2955 -48.2953 -48.2946 -48.2944
   -48.2930 -48.2929 -48.2521 -48.2521 -48.2504 -48.2504 -48.2491 -48.2491
   -48.2476 -48.2476 -48.2334 -48.2317 -48.2302 -48.2288 -36.0161 -36.0150
   -35.9136 -35.9123 -35.9055 -35.9041 -15.2405 -15.2364 -14.4499 -14.4464
    -6.3777  -6.3462  -3.8619  -3.8123  -3.3323  -3.3261  -2.9770  -2.8974
    -1.6718  -1.5923  -1.2611  -1.2504  -1.2149  -1.2118   0.1098   0.1293
     0.3396   0.3423   2.6099   2.6376   2.8965   2.8990   3.3875

          k = 0.0000 0.1443 0.0000 ( 37697 PWs)   bands (ev):

   -61.8962 -61.8952 -48.2972 -48.2965 -48.2954 -48.2947 -48.2946 -48.2939
   -48.2930 -48.2923 -48.2523 -48.2521 -48.2506 -48.2505 -48.2493 -48.2491
   -48.2478 -48.2477 -48.2331 -48.2315 -48.2300 -48.2285 -36.0097 -36.0086
   -35.9438 -35.9424 -35.9124 -35.9110 -15.0741 -15.0701 -14.3637 -14.3603
    -6.1524  -6.1209  -4.3400  -4.3030  -3.2569  -3.2507  -2.7530  -2.6843
    -2.0902  -2.0687  -1.5023  -1.4988  -1.4906  -1.4282  -0.0239   0.0231
     0.5300   0.5321   1.9932   2.0640   2.7964   2.7993   3.6807

          k = 0.0000 0.2165 0.0000 ( 37653 PWs)   bands (ev):

   -61.8921 -61.8911 -48.2971 -48.2957 -48.2954 -48.2946 -48.2939 -48.2931
   -48.2930 -48.2915 -48.2525 -48.2522 -48.2509 -48.2506 -48.2495 -48.2492
   -48.2480 -48.2477 -48.2327 -48.2311 -48.2296 -48.2282 -36.0005 -35.9994
   -35.9882 -35.9868 -35.9227 -35.9214 -14.8111 -14.8072 -14.2272 -14.2238
    -5.8114  -5.7805  -4.7639  -4.7364  -3.2628  -3.2561  -3.2052  -3.1992
    -2.4704  -2.4077  -1.7259  -1.7221  -1.5832  -1.5376  -0.0639  -0.0020
     0.6361   0.6380   1.6027   1.7292   2.7306   2.7339   4.0478

          k = 0.0000 0.2887 0.0000 ( 37721 PWs)   bands (ev):

   -61.8872 -61.8863 -48.2971 -48.2954 -48.2948 -48.2946 -48.2930 -48.2930
   -48.2922 -48.2906 -48.2528 -48.2523 -48.2512 -48.2507 -48.2498 -48.2493
   -48.2483 -48.2478 -48.2323 -48.2306 -48.2291 -48.2277 -36.0413 -36.0398
   -35.9885 -35.9875 -35.9349 -35.9336 -14.4779 -14.4741 -14.0491 -14.0459
    -5.4969  -5.4717  -5.0017  -4.9779  -4.2830  -4.2792  -3.2595  -3.2538
    -2.6462  -2.6009  -1.8254  -1.8007  -1.7693  -1.7652   0.0127   0.0813
     0.6409   0.6427   1.6825   1.8597   2.7314   2.7354   4.4809

          k = 0.0000 0.3608 0.0000 ( 37749 PWs)   bands (ev):

   -61.8823 -61.8814 -48.2971 -48.2954 -48.2945 -48.2939 -48.2929 -48.2921
   -48.2913 -48.2897 -48.2532 -48.2524 -48.2515 -48.2508 -48.2500 -48.2494
   -48.2485 -48.2479 -48.2318 -48.2302 -48.2287 -48.2273 -36.0932 -36.0918
   -35.9772 -35.9762 -35.9471 -35.9457 -14.1295 -14.1259 -13.8295 -13.8264
    -5.6064  -5.5944  -5.2413  -5.2359  -4.7380  -4.7138  -3.4080  -3.4025
    -2.9965  -2.9691  -2.0876  -2.0689  -1.6639  -1.6598   0.2757   0.3369
     0.6176   0.6194   2.0869   2.2887   2.7677   2.7725   4.9386

          k = 0.0000 0.4330 0.0000 ( 37785 PWs)   bands (ev):

   -61.8782 -61.8773 -48.2971 -48.2954 -48.2945 -48.2931 -48.2929 -48.2914
   -48.2905 -48.2890 -48.2535 -48.2525 -48.2518 -48.2509 -48.2502 -48.2495
   -48.2487 -48.2480 -48.2315 -48.2298 -48.2283 -48.2269 -36.1370 -36.1355
   -35.9676 -35.9666 -35.9574 -35.9560 -13.8655 -13.8619 -13.5505 -13.5475
    -6.2027  -6.1986  -5.5845  -5.5728  -4.5422  -4.5297  -3.5671  -3.5618
    -3.2496  -3.2242  -2.2582  -2.2447  -1.5299  -1.5260   0.6320   0.6339
     0.6495   0.6940   2.6066   2.7948   2.8039   2.8094   5.0635

          k = 0.0000 0.5052 0.0000 ( 37822 PWs)   bands (ev):

   -61.8755 -61.8746 -48.2971 -48.2954 -48.2945 -48.2929 -48.2926 -48.2909
   -48.2900 -48.2884 -48.2537 -48.2526 -48.2520 -48.2509 -48.2504 -48.2496
   -48.2489 -48.2481 -48.2312 -48.2296 -48.2280 -48.2266 -36.1660 -36.1645
   -35.9643 -35.9628 -35.9611 -35.9602 -13.7203 -13.7166 -13.2885 -13.2858
    -6.7603  -6.7562  -5.6040  -5.5961  -4.7064  -4.6993  -3.6792  -3.6739
    -3.1281  -3.1050  -2.3836  -2.3754  -1.4426  -1.4389   0.6809   0.6832
     1.0014   1.0264   2.8263   2.8323   3.0829   3.2088   4.6025

          k = 0.0000-0.5774 0.0000 ( 37832 PWs)   bands (ev):

   -61.8745 -61.8736 -48.2971 -48.2954 -48.2945 -48.2929 -48.2924 -48.2907
   -48.2899 -48.2883 -48.2537 -48.2526 -48.2521 -48.2510 -48.2504 -48.2496
   -48.2489 -48.2481 -48.2311 -48.2295 -48.2279 -48.2265 -36.1762 -36.1747
   -35.9667 -35.9653 -35.9589 -35.9579 -13.6728 -13.6690 -13.1819 -13.1792
    -6.9655  -6.9614  -5.5725  -5.5687  -4.8494  -4.8418  -3.7188  -3.7135
    -2.9964  -2.9789  -2.4511  -2.4448  -1.4148  -1.4112   0.7084   0.7109
     1.1555   1.1667   2.8335   2.8397   3.3341   3.3979   4.2748

          k = 0.0625 0.1083 0.0000 ( 37709 PWs)   bands (ev):

   -61.8971 -61.8961 -48.2971 -48.2967 -48.2954 -48.2949 -48.2946 -48.2941
   -48.2930 -48.2925 -48.2522 -48.2521 -48.2505 -48.2504 -48.2492 -48.2491
   -48.2477 -48.2476 -48.2332 -48.2316 -48.2300 -48.2286 -36.0118 -36.0107
   -35.9337 -35.9323 -35.9104 -35.9091 -15.1288 -15.1248 -14.3921 -14.3886
    -6.2257  -6.1942  -4.2130  -4.1727  -3.2857  -3.2796  -2.7780  -2.7001
    -1.8909  -1.8677  -1.5063  -1.4969  -1.4083  -1.3572   0.0405   0.0804
     0.4299   0.4319   2.2283   2.2851   2.7524   2.7552   3.5970

          k = 0.0625 0.1804 0.0000 ( 37703 PWs)   bands (ev):

   -61.8936 -61.8927 -48.2971 -48.2960 -48.2954 -48.2946 -48.2943 -48.2934
   -48.2930 -48.2919 -48.2524 -48.2522 -48.2508 -48.2505 -48.2494 -48.2492
   -48.2479 -48.2477 -48.2329 -48.2313 -48.2297 -48.2283 -36.0038 -36.0028
   -35.9703 -35.9689 -35.9199 -35.9185 -14.9137 -14.9098 -14.2808 -14.2775
    -5.9377  -5.9063  -4.6210  -4.5905  -3.2800  -3.2741  -2.8312  -2.7979
    -2.4694  -2.4421  -1.7670  -1.7457  -1.4433  -1.3884   0.0324   0.0847
     0.4268   0.4350   1.8886   1.9834   2.5771   2.5824   3.9156

          k = 0.0625 0.2526 0.0000 ( 37702 PWs)   bands (ev):

   -61.8892 -61.8882 -48.2971 -48.2953 -48.2952 -48.2945 -48.2935 -48.2929
   -48.2926 -48.2910 -48.2527 -48.2523 -48.2511 -48.2506 -48.2497 -48.2493
   -48.2482 -48.2478 -48.2325 -48.2308 -48.2293 -48.2279 -36.0180 -36.0166
   -35.9932 -35.9921 -35.9323 -35.9309 -14.6136 -14.6098 -14.1246 -14.1214
    -5.5692  -5.5396  -4.9613  -4.9376  -3.8387  -3.8348  -3.2270  -3.2197
    -2.6194  -2.5853  -1.9749  -1.9566  -1.4645  -1.4302  -0.0330   0.0200
     0.4963   0.5234   1.7651   1.8889   2.5410   2.5616   4.3122

          k = 0.0625 0.3248 0.0000 ( 37734 PWs)   bands (ev):

   -61.8843 -61.8834 -48.2970 -48.2953 -48.2945 -48.2943 -48.2929 -48.2926
   -48.2917 -48.2902 -48.2530 -48.2524 -48.2514 -48.2507 -48.2499 -48.2494
   -48.2484 -48.2479 -48.2320 -48.2304 -48.2289 -48.2274 -36.0690 -36.0675
   -35.9819 -35.9809 -35.9457 -35.9443 -14.2651 -14.2615 -13.9309 -13.9277
    -5.4559  -5.4377  -4.9357  -4.9160  -4.7853  -4.7769  -3.4661  -3.4594
    -2.7397  -2.7148  -2.2842  -2.2770  -1.4460  -1.4269   0.0177   0.0697
     0.6468   0.6692   1.8928   2.0280   2.6193   2.6707   4.7723

          k = 0.0625 0.3969 0.0000 ( 37770 PWs)   bands (ev):

   -61.8798 -61.8789 -48.2970 -48.2953 -48.2944 -48.2935 -48.2928 -48.2918
   -48.2909 -48.2893 -48.2533 -48.2525 -48.2517 -48.2509 -48.2501 -48.2495
   -48.2486 -48.2480 -48.2316 -48.2300 -48.2284 -48.2270 -36.1157 -36.1142
   -35.9715 -35.9705 -35.9580 -35.9566 -13.9489 -13.9453 -13.6866 -13.6835
    -5.8187  -5.8141  -5.4883  -5.4767  -4.5701  -4.5504  -3.7116  -3.7041
    -2.9989  -2.9828  -2.5027  -2.4951  -1.3730  -1.3627   0.2231   0.2592
     0.8052   0.8242   2.1985   2.2917   2.7653   2.8677   5.1777

          k = 0.0625 0.4691 0.0000 ( 37798 PWs)   bands (ev):

   -61.8764 -61.8754 -48.2970 -48.2953 -48.2943 -48.2929 -48.2928 -48.2912
   -48.2903 -48.2887 -48.2536 -48.2526 -48.2519 -48.2509 -48.2503 -48.2496
   -48.2488 -48.2481 -48.2313 -48.2296 -48.2281 -48.2267 -36.1512 -36.1497
   -35.9678 -35.9664 -35.9630 -35.9621 -13.7513 -13.7477 -13.4009 -13.3980
    -6.4735  -6.4694  -5.5938  -5.5842  -4.5585  -4.5504  -3.8053  -3.7979
    -3.1145  -3.0969  -2.6073  -2.6013  -1.3300  -1.3250   0.4754   0.4927
     0.9878   1.0054   2.4599   2.4884   3.0039   3.1294   5.0358

          k = 0.0625 0.5413 0.0000 ( 37791 PWs)   bands (ev):

   -61.8745 -61.8736 -48.2970 -48.2953 -48.2943 -48.2927 -48.2925 -48.2908
   -48.2900 -48.2884 -48.2537 -48.2527 -48.2520 -48.2510 -48.2504 -48.2496
   -48.2489 -48.2481 -48.2311 -48.2295 -48.2279 -48.2265 -36.1704 -36.1688
   -35.9727 -35.9713 -35.9589 -35.9579 -13.6581 -13.6544 -13.2056 -13.2029
    -6.8603  -6.8562  -5.5742  -5.5690  -4.7679  -4.7605  -3.8216  -3.8164
    -3.0003  -2.9846  -2.6785  -2.6748  -1.3301  -1.3270   0.6625   0.6676
     1.1201   1.1321   2.5710   2.5771   3.2687   3.3451   4.5610

          k = 0.1250 0.2165 0.0000 ( 37731 PWs)   bands (ev):

   -61.8898 -61.8889 -48.2970 -48.2954 -48.2953 -48.2945 -48.2937 -48.2929
   -48.2928 -48.2912 -48.2527 -48.2523 -48.2510 -48.2506 -48.2496 -48.2493
   -48.2481 -48.2478 -48.2325 -48.2309 -48.2294 -48.2280 -36.0082 -36.0068
   -35.9950 -35.9940 -35.9329 -35.9315 -14.6601 -14.6563 -14.1505 -14.1472
    -5.6006  -5.5698  -4.9291  -4.9051  -3.6970  -3.6924  -3.0255  -2.9986
    -2.8669  -2.8626  -1.9509  -1.9177  -1.3508  -1.3021   0.0369   0.0604
     0.2818   0.3395   2.0953   2.1805   2.1836   2.2297   4.2587

          k = 0.1250 0.2887 0.0000 ( 37723 PWs)   bands (ev):

   -61.8853 -61.8844 -48.2969 -48.2952 -48.2946 -48.2943 -48.2929 -48.2927
   -48.2921 -48.2905 -48.2530 -48.2524 -48.2513 -48.2507 -48.2498 -48.2494
   -48.2483 -48.2479 -48.2321 -48.2305 -48.2290 -48.2275 -36.0517 -36.0503
   -35.9847 -35.9836 -35.9488 -35.9474 -14.3376 -14.3339 -13.9831 -13.9799
    -5.2826  -5.2602  -5.0936  -5.0685  -4.4648  -4.4609  -3.4692  -3.4574
    -2.9575  -2.9519  -2.2104  -2.1922  -1.2185  -1.1815  -0.1846  -0.1437
     0.5780   0.6265   1.8560   1.8824   2.4035   2.5425   4.6882

          k = 0.1250 0.3608 0.0000 ( 37761 PWs)   bands (ev):

   -61.8809 -61.8799 -48.2968 -48.2950 -48.2942 -48.2939 -48.2926 -48.2922
   -48.2913 -48.2898 -48.2532 -48.2525 -48.2516 -48.2509 -48.2501 -48.2495
   -48.2486 -48.2480 -48.2317 -48.2301 -48.2285 -48.2271 -36.0946 -36.0932
   -35.9748 -35.9738 -35.9646 -35.9632 -13.9974 -13.9939 -13.7821 -13.7789
    -5.4790  -5.4678  -5.2654  -5.2606  -4.6800  -4.6548  -3.8550  -3.8469
    -3.0567  -3.0517  -2.6353  -2.6270  -1.0806  -1.0563  -0.1495  -0.1085
     0.8702   0.8996   1.7696   1.8044   2.7036   2.8561   5.1627

          k = 0.1250 0.4330 0.0000 ( 37768 PWs)   bands (ev):

   -61.8771 -61.8761 -48.2966 -48.2949 -48.2940 -48.2933 -48.2924 -48.2916
   -48.2907 -48.2891 -48.2535 -48.2526 -48.2518 -48.2510 -48.2502 -48.2496
   -48.2487 -48.2481 -48.2314 -48.2297 -48.2282 -48.2268 -36.1306 -36.1291
   -35.9799 -35.9785 -35.9646 -35.9636 -13.7474 -13.7438 -13.5188 -13.5158
    -6.0648  -6.0608  -5.5275  -5.5171  -4.4028  -4.3902  -4.0836  -4.0725
    -3.1678  -3.1640  -2.9838  -2.9755  -1.0426  -1.0291   0.0992   0.1302
     1.0689   1.0827   1.8810   1.9128   2.9902   3.1235   5.4007

          k = 0.1250 0.5052 0.0000 ( 37794 PWs)   bands (ev):

   -61.8745 -61.8736 -48.2966 -48.2949 -48.2940 -48.2929 -48.2924 -48.2912
   -48.2903 -48.2887 -48.2536 -48.2527 -48.2520 -48.2511 -48.2504 -48.2497
   -48.2489 -48.2482 -48.2311 -48.2295 -48.2280 -48.2265 -36.1545 -36.1530
   -35.9890 -35.9876 -35.9589 -35.9579 -13.6154 -13.6118 -13.2697 -13.2669
    -6.5681  -6.5641  -5.5589  -5.5523  -4.5724  -4.5655  -4.0336  -4.0258
    -3.2486  -3.2459  -3.0489  -3.0380  -1.0967  -1.0890   0.4444   0.4622
     1.1219   1.1288   2.0546   2.0741   3.2026   3.2832   5.1321

          k = 0.1250 0.5774 0.0000 ( 37780 PWs)   bands (ev):

   -61.8736 -61.8727 -48.2966 -48.2949 -48.2939 -48.2927 -48.2923 -48.2910
   -48.2902 -48.2886 -48.2537 -48.2527 -48.2520 -48.2511 -48.2504 -48.2497
   -48.2489 -48.2482 -48.2310 -48.2294 -48.2279 -48.2265 -36.1629 -36.1614
   -35.9922 -35.9908 -35.9569 -35.9559 -13.5718 -13.5681 -13.1704 -13.1676
    -6.7517  -6.7477  -5.5495  -5.5459  -4.6872  -4.6798  -4.0288  -4.0233
    -3.2776  -3.2754  -3.0026  -2.9934  -1.1352  -1.1286   0.6536   0.6576
     1.0727   1.0804   2.1465   2.1493   3.2822   3.3331   4.9189

          k = 0.1875 0.3248 0.0000 ( 37725 PWs)   bands (ev):

   -61.8812 -61.8803 -48.2966 -48.2949 -48.2941 -48.2940 -48.2925 -48.2923
   -48.2915 -48.2899 -48.2532 -48.2525 -48.2515 -48.2509 -48.2500 -48.2496
   -48.2485 -48.2481 -48.2318 -48.2301 -48.2286 -48.2272 -36.0851 -36.0836
   -35.9769 -35.9758 -35.9681 -35.9668 -14.0128 -14.0092 -13.8167 -13.8135
    -5.3483  -5.3341  -5.0962  -5.0923  -4.7693  -4.7433  -3.8594  -3.8492
    -3.3366  -3.3326  -2.5151  -2.5085  -0.9175  -0.8843  -0.3284  -0.2881
     0.8638   0.9019   1.5952   1.6072   2.6856   2.8510   5.1449

          k = 0.1875 0.3969 0.0000 ( 37753 PWs)   bands (ev):

   -61.8774 -61.8765 -48.2963 -48.2946 -48.2938 -48.2936 -48.2922 -48.2919
   -48.2911 -48.2895 -48.2534 -48.2527 -48.2517 -48.2510 -48.2502 -48.2497
   -48.2487 -48.2482 -48.2314 -48.2297 -48.2282 -48.2268 -36.1138 -36.1124
   -35.9922 -35.9908 -35.9654 -35.9644 -13.7098 -13.7063 -13.6192 -13.6160
    -5.6959  -5.6920  -5.4500  -5.4397  -4.3666  -4.3451  -4.2099  -4.2017
    -3.6623  -3.6587  -2.9115  -2.9095  -0.7050  -0.6832  -0.2567  -0.2236
     1.0942   1.1149   1.5077   1.5321   2.9906   3.1283   5.5674

          k = 0.1875 0.4691 0.0000 ( 37759 PWs)   bands (ev):

   -61.8745 -61.8736 -48.2961 -48.2944 -48.2935 -48.2932 -48.2919 -48.2915
   -48.2908 -48.2892 -48.2535 -48.2528 -48.2519 -48.2511 -48.2503 -48.2497
   -48.2488 -48.2482 -48.2311 -48.2295 -48.2280 -48.2265 -36.1347 -36.1332
   -36.0093 -36.0078 -35.9589 -35.9579 -13.5493 -13.5458 -13.3568 -13.3538
    -6.1802  -6.1763  -5.5156  -5.5087  -4.4314  -4.4244  -4.1255  -4.1130
    -3.8879  -3.8844  -3.1821  -3.1787  -0.7513  -0.7389   0.0913   0.1125
     1.1418   1.1492   1.6541   1.6864   3.1858   3.2620   5.5680

          k = 0.1875 0.5413 0.0000 ( 37793 PWs)   bands (ev):

   -61.8729 -61.8720 -48.2960 -48.2943 -48.2934 -48.2931 -48.2918 -48.2914
   -48.2906 -48.2890 -48.2536 -48.2529 -48.2519 -48.2512 -48.2504 -48.2498
   -48.2489 -48.2483 -48.2310 -48.2293 -48.2278 -48.2264 -36.1457 -36.1442
   -36.0189 -36.0175 -35.9553 -35.9544 -13.4717 -13.4681 -13.1873 -13.1844
    -6.4576  -6.4536  -5.5428  -5.5386  -4.5248  -4.5180  -4.1651  -4.1589
    -3.9623  -3.9595  -3.2038  -3.1991  -0.8374  -0.8286   0.4649   0.4734
     0.9961   1.0004   1.8708   1.8915   3.2022   3.2386   5.4699

          k = 0.2500 0.4330 0.0000 ( 37711 PWs)   bands (ev):

   -61.8745 -61.8736 -48.2958 -48.2941 -48.2936 -48.2932 -48.2919 -48.2916
   -48.2910 -48.2894 -48.2535 -48.2528 -48.2518 -48.2511 -48.2503 -48.2498
   -48.2488 -48.2483 -48.2311 -48.2295 -48.2280 -48.2265 -36.1243 -36.1228
   -36.0199 -36.0184 -35.9589 -35.9580 -13.4875 -13.4840 -13.4271 -13.4240
    -5.9597  -5.9558  -5.4839  -5.4772  -4.4138  -4.4054  -4.2510  -4.2477
    -4.0525  -4.0371  -3.2776  -3.2748  -0.3501  -0.3266  -0.3146  -0.3045
     1.1345   1.1465   1.5275   1.5630   3.1864   3.2596   5.7799

          k = 0.2500 0.5052 0.0000 ( 37776 PWs)   bands (ev):

   -61.8726 -61.8716 -48.2955 -48.2938 -48.2936 -48.2928 -48.2919 -48.2912
   -48.2910 -48.2894 -48.2535 -48.2529 -48.2519 -48.2513 -48.2504 -48.2498
   -48.2489 -48.2483 -48.2310 -48.2293 -48.2278 -48.2264 -36.1269 -36.1254
   -36.0429 -36.0415 -35.9545 -35.9535 -13.3777 -13.3742 -13.2401 -13.2371
    -6.1074  -6.1035  -5.5345  -5.5300  -4.6707  -4.6670  -4.3905  -4.3830
    -3.9746  -3.9672  -3.5150  -3.5128  -0.4426  -0.4313   0.0557   0.0627
     0.9598   0.9632   1.8155   1.8572   3.1448   3.1595   5.6797

          k = 0.2500 0.5774 0.0000 ( 37791 PWs)   bands (ev):

   -61.8719 -61.8710 -48.2953 -48.2937 -48.2936 -48.2926 -48.2919 -48.2910
   -48.2910 -48.2895 -48.2535 -48.2530 -48.2519 -48.2513 -48.2505 -48.2498
   -48.2490 -48.2483 -48.2309 -48.2293 -48.2277 -48.2263 -36.1263 -36.1248
   -36.0525 -36.0510 -35.9529 -35.9520 -13.3391 -13.3355 -13.1702 -13.1672
    -6.1504  -6.1465  -5.5644  -5.5604  -4.8237  -4.8200  -4.2103  -4.2055
    -4.1881  -4.1848  -3.5156  -3.5136  -0.4922  -0.4832   0.3157   0.3197
     0.7529   0.7564   2.0439   2.0669   3.0105   3.0198   5.6143

          k = 0.3125 0.5413 0.0000 ( 37789 PWs)   bands (ev):

   -61.8715 -61.8706 -48.2948 -48.2940 -48.2931 -48.2923 -48.2922 -48.2914
   -48.2906 -48.2898 -48.2535 -48.2531 -48.2518 -48.2514 -48.2505 -48.2498
   -48.2490 -48.2483 -48.2309 -48.2292 -48.2277 -48.2263 -36.1088 -36.1073
   -36.0750 -36.0735 -35.9521 -35.9511 -13.2597 -13.2562 -13.1976 -13.1945
    -5.8462  -5.8422  -5.5741  -5.5701  -5.2633  -5.2596  -4.2237  -4.2168
    -3.8852  -3.8831  -3.8791  -3.8759  -0.1560  -0.1446   0.0240   0.0307
     0.6541   0.6563   2.2436   2.2829   2.8178   2.8392   5.5728

     the Fermi energy is    -0.3011 ev

!    total energy              =   -2326.92571073 Ry
     total all-electron energy =    -35628.673540 Ry
     estimated scf accuracy    <          8.6E-09 Ry
     smearing contrib. (-TS)   =       0.00087590 Ry
     internal energy E=F+TS    =   -2326.92658663 Ry

     The total energy is F=E-TS. E is the sum of the following terms:
     one-electron contribution =  -24890.93076771 Ry
     hartree contribution      =   12433.67696063 Ry
     xc contribution           =    -152.42434354 Ry
     ewald contribution        =   11293.26593622 Ry
     one-center paw contrib.   =   -1010.51437223 Ry

     convergence has been achieved in  22 iterations

     Writing all to output data dir ./tmp/cleave_011/mose2_cleave_011.save/ :
     XML data file, charge density, pseudopotentials, collected wavefunctions

     init_run     :     11.86s CPU     12.05s WALL (       1 calls)
     electrons    :    436.32s CPU    443.50s WALL (       1 calls)

     Called by init_run:
     wfcinit      :      5.44s CPU      5.48s WALL (       1 calls)
     potinit      :      5.74s CPU      5.78s WALL (       1 calls)
     hinit0       :      0.06s CPU      0.06s WALL (       1 calls)

     Called by electrons:
     c_bands      :    366.18s CPU    367.59s WALL (      23 calls)
     sum_band     :     46.32s CPU     48.94s WALL (      23 calls)
     v_of_rho     :     14.37s CPU     15.19s WALL (      23 calls)
     newd         :      8.28s CPU     10.69s WALL (      23 calls)
     PAW_pot      :      1.43s CPU      1.46s WALL (      23 calls)
     mix_rho      :      5.64s CPU      5.66s WALL (      23 calls)
     vdW_kernel   :      5.28s CPU      5.28s WALL (       1 calls)

     Called by c_bands:
     init_us_2    :      3.37s CPU      3.38s WALL (    1410 calls)
     cegterg      :    359.70s CPU    361.04s WALL (     690 calls)

     Called by *egterg:
     cdiaghg      :     13.18s CPU     13.20s WALL (    3602 calls)
     h_psi        :    163.42s CPU    164.00s WALL (    3662 calls)
     s_psi        :     37.78s CPU     37.83s WALL (    3662 calls)
     g_psi        :      0.72s CPU      0.72s WALL (    2942 calls)

     Called by h_psi:
     h_psi:calbec :     46.30s CPU     46.45s WALL (    3662 calls)
     vloc_psi     :     68.26s CPU     68.65s WALL (    3662 calls)
                                        0.00s GPU  (    3662 calls)
     add_vuspsi   :     48.14s CPU     48.19s WALL (    3662 calls)

     General routines
     calbec       :     65.65s CPU     65.85s WALL (    4352 calls)
     fft          :      4.76s CPU      4.81s WALL (    1448 calls)
     ffts         :      1.97s CPU      1.97s WALL (    2629 calls)
     fftw         :     72.37s CPU     72.79s WALL (  210646 calls)
     interpolate  :      0.10s CPU      0.10s WALL (      23 calls)

     Parallel routines

     PWSCF        :   7m28.93s CPU   7m36.53s WALL


   This run was terminated on:  10:20:52  20Jun2026            

=------------------------------------------------------------------------------=
   JOB DONE.
=------------------------------------------------------------------------------=
Note: The following floating-point exceptions are signalling: IEEE_UNDERFLOW_FLAG IEEE_DENORMAL
Note: The following floating-point exceptions are signalling: IEEE_UNDERFLOW_FLAG IEEE_DENORMAL
Note: The following floating-point exceptions are signalling: IEEE_UNDERFLOW_FLAG IEEE_DENORMAL
Note: The following floating-point exceptions are signalling: IEEE_UNDERFLOW_FLAG IEEE_DENORMAL
Note: The following floating-point exceptions are signalling: IEEE_UNDERFLOW_FLAG IEEE_DENORMAL
Note: The following floating-point exceptions are signalling: IEEE_UNDERFLOW_FLAG IEEE_DENORMAL
Note: The following floating-point exceptions are signalling: IEEE_UNDERFLOW_FLAG IEEE_DENORMAL
Note: The following floating-point exceptions are signalling: IEEE_UNDERFLOW_FLAG IEEE_DENORMAL
Note: The following floating-point exceptions are signalling: IEEE_UNDERFLOW_FLAG IEEE_DENORMAL
Note: The following floating-point exceptions are signalling: IEEE_UNDERFLOW_FLAG IEEE_DENORMAL
Note: The following floating-point exceptions are signalling: IEEE_UNDERFLOW_FLAG IEEE_DENORMAL
Note: The following floating-point exceptions are signalling: IEEE_UNDERFLOW_FLAG IEEE_DENORMAL
Note: The following floating-point exceptions are signalling: IEEE_UNDERFLOW_FLAG IEEE_DENORMAL
Note: The following floating-point exceptions are signalling: IEEE_UNDERFLOW_FLAG IEEE_DENORMAL
Note: The following floating-point exceptions are signalling: IEEE_UNDERFLOW_FLAG IEEE_DENORMAL
Note: The following floating-point exceptions are signalling: IEEE_UNDERFLOW_FLAG IEEE_DENORMAL
Note: The following floating-point exceptions are signalling: IEEE_UNDERFLOW_FLAG IEEE_DENORMAL
Note: The following floating-point exceptions are signalling: IEEE_UNDERFLOW_FLAG IEEE_DENORMAL
Note: The following floating-point exceptions are signalling: IEEE_UNDERFLOW_FLAG IEEE_DENORMAL
Note: The following floating-point exceptions are signalling: IEEE_UNDERFLOW_FLAG IEEE_DENORMAL
Note: The following floating-point exceptions are signalling: IEEE_UNDERFLOW_FLAG IEEE_DENORMAL
Note: The following floating-point exceptions are signalling: IEEE_UNDERFLOW_FLAG IEEE_DENORMAL
Note: The following floating-point exceptions are signalling: IEEE_UNDERFLOW_FLAG IEEE_DENORMAL
Note: The following floating-point exceptions are signalling: IEEE_UNDERFLOW_FLAG IEEE_DENORMAL
