
     Program PWSCF v.7.5 starts on 20Jun2026 at 13:59:48 

     This program is part of the open-source Quantum ESPRESSO suite
     for quantum simulation of materials; please cite
         "P. Giannozzi et al., J. Phys.:Condens. Matter 21 395502 (2009);
         "P. Giannozzi et al., J. Phys.:Condens. Matter 29 465901 (2017);
         "P. Giannozzi et al., J. Chem. Phys. 152 154105 (2020);
          URL http://www.quantum-espresso.org", 
     in publications or presentations arising from this work. More details at
     http://www.quantum-espresso.org/quote

     Parallel version (MPI), running on    24 processors

     MPI processes distributed on     1 nodes
     24836 MiB available memory on the printing compute node when the environment starts

     Waiting for input...
     Reading input from standard input

     Current dimensions of program PWSCF are:
     Max number of different atomic species (ntypx) = 10
     Max number of k-points (npk) =  40000
     Max angular momentum in pseudopotentials (lmaxx) =  4
     file Mo.pbe-spn-kjpaw_psl.1.0.0.UPF: wavefunction(s)  4S 4D renormalized
     file Se.pbe-dn-kjpaw_psl.1.0.0.UPF: wavefunction(s)  4S 4P 3D renormalized

     IMPORTANT: XC functional enforced from input :
     Exchange-correlation= VDW-DF2-B86R
                           (   1   4  26   0   2   0   0)
     Any further DFT definition will be discarded
     Please, verify this is what you really want


     R & G space division:  proc/nbgrp/npool/nimage =      24
     Subspace diagonalization in iterative solution of the eigenvalue problem:
     a serial algorithm will be used


     Parallelization info
     --------------------
     sticks:   dense  smooth     PW     G-vecs:    dense   smooth      PW
     Min          69      35     10                35537    12585    1924
     Max          70      36     11                35620    12648    1981
     Sum        1675     847    241               853823   302525   46513

     Using Slab Decomposition



     bravais-lattice index     =            4
     lattice parameter (alat)  =       6.1794  a.u.
     unit-cell volume          =    3124.5879 (a.u.)^3
     number of atoms/cell      =            6
     number of atomic types    =            2
     number of electrons       =        92.00
     number of Kohn-Sham states=           55
     kinetic-energy cutoff     =      80.0000  Ry
     charge density cutoff     =     640.0000  Ry
     scf convergence threshold =      1.0E-08
     mixing beta               =       0.3000
     number of iterations used =            8  local-TF  mixing
     Exchange-correlation= VDW-DF2-B86R
                           (   1   4  26   0   2   0   0)

     celldm(1)=   6.179404  celldm(2)=   0.000000  celldm(3)=  15.290520
     celldm(4)=   0.000000  celldm(5)=   0.000000  celldm(6)=   0.000000

     crystal axes: (cart. coord. in units of alat)
               a(1) = (   1.000000   0.000000   0.000000 )  
               a(2) = (  -0.500000   0.866025   0.000000 )  
               a(3) = (   0.000000   0.000000  15.290520 )  

     reciprocal axes: (cart. coord. in units 2 pi/alat)
               b(1) = (  1.000000  0.577350 -0.000000 )  
               b(2) = (  0.000000  1.154701  0.000000 )  
               b(3) = (  0.000000 -0.000000  0.065400 )  


     PseudoPot. # 1 for Mo read from file:
     ./pseudo/Mo.pbe-spn-kjpaw_psl.1.0.0.UPF
     MD5 check sum: 4396e0c640fcce5c25f020efccf1ab12
     Pseudo is Projector augmented-wave + core cor, Zval = 14.0
     Generated using &quot;atomic&quot; code by A. Dal Corso  v.6.3
     Shape of augmentation charge: PSQ
     Using radial grid of 1229 points,  6 beta functions with: 
                l(1) =   0
                l(2) =   0
                l(3) =   1
                l(4) =   1
                l(5) =   2
                l(6) =   2
     Q(r) pseudized with 0 coefficients 


     PseudoPot. # 2 for Se read from file:
     ./pseudo/Se.pbe-dn-kjpaw_psl.1.0.0.UPF
     MD5 check sum: ac240dd2bae32a30e0bf3a38df9c8785
     Pseudo is Projector augmented-wave + core cor, Zval = 16.0
     Generated using &quot;atomic&quot; code by A. Dal Corso  v.6.3
     Shape of augmentation charge: PSQ
     Using radial grid of 1211 points,  6 beta functions with: 
                l(1) =   0
                l(2) =   0
                l(3) =   1
                l(4) =   1
                l(5) =   2
                l(6) =   2
     Q(r) pseudized with 0 coefficients 


     atomic species   valence    mass     pseudopotential
     Mo               14.00    95.96000     Mo( 1.00)
     Se               16.00    78.96000     Se( 1.00)

      6 Sym. Ops. (no inversion) found



   Cartesian axes

     site n.     atom                  positions (alat units)
         1        Se     tau(   1) = (  -0.0000005   0.5773506   6.1238532  )
         2        Mo     tau(   2) = (   0.0000000   0.0000000   6.6502752  )
         3        Se     tau(   3) = (   0.5000005   0.2886748   7.1775994  )
         4        Se     tau(   4) = (  -0.0000005   0.5773506  10.5588226  )
         5        Mo     tau(   5) = (   0.5000005   0.2886748  11.0860092  )
         6        Se     tau(   6) = (   0.0000000   0.0000000  11.6131498  )

     number of k points=    30  Methfessel-Paxton smearing, width (Ry)=  0.0200
                       cart. coord. in units 2pi/alat
        k(    1) = (   0.0000000   0.0000000   0.0000000), wk =   0.0078125
        k(    2) = (   0.0000000   0.0721688   0.0000000), wk =   0.0468750
        k(    3) = (   0.0000000   0.1443376   0.0000000), wk =   0.0468750
        k(    4) = (   0.0000000   0.2165064   0.0000000), wk =   0.0468750
        k(    5) = (   0.0000000   0.2886751   0.0000000), wk =   0.0468750
        k(    6) = (   0.0000000   0.3608439   0.0000000), wk =   0.0468750
        k(    7) = (   0.0000000   0.4330127   0.0000000), wk =   0.0468750
        k(    8) = (   0.0000000   0.5051815   0.0000000), wk =   0.0468750
        k(    9) = (   0.0000000  -0.5773503   0.0000000), wk =   0.0234375
        k(   10) = (   0.0625000   0.1082532   0.0000000), wk =   0.0468750
        k(   11) = (   0.0625000   0.1804220   0.0000000), wk =   0.0937500
        k(   12) = (   0.0625000   0.2525907   0.0000000), wk =   0.0937500
        k(   13) = (   0.0625000   0.3247595   0.0000000), wk =   0.0937500
        k(   14) = (   0.0625000   0.3969283   0.0000000), wk =   0.0937500
        k(   15) = (   0.0625000   0.4690971   0.0000000), wk =   0.0937500
        k(   16) = (   0.0625000   0.5412659   0.0000000), wk =   0.0937500
        k(   17) = (   0.1250000   0.2165064   0.0000000), wk =   0.0468750
        k(   18) = (   0.1250000   0.2886751   0.0000000), wk =   0.0937500
        k(   19) = (   0.1250000   0.3608439   0.0000000), wk =   0.0937500
        k(   20) = (   0.1250000   0.4330127   0.0000000), wk =   0.0937500
        k(   21) = (   0.1250000   0.5051815   0.0000000), wk =   0.0937500
        k(   22) = (   0.1250000   0.5773503   0.0000000), wk =   0.0468750
        k(   23) = (   0.1875000   0.3247595   0.0000000), wk =   0.0468750
        k(   24) = (   0.1875000   0.3969283   0.0000000), wk =   0.0937500
        k(   25) = (   0.1875000   0.4690971   0.0000000), wk =   0.0937500
        k(   26) = (   0.1875000   0.5412659   0.0000000), wk =   0.0937500
        k(   27) = (   0.2500000   0.4330127   0.0000000), wk =   0.0468750
        k(   28) = (   0.2500000   0.5051815   0.0000000), wk =   0.0937500
        k(   29) = (   0.2500000   0.5773503   0.0000000), wk =   0.0468750
        k(   30) = (   0.3125000   0.5412659   0.0000000), wk =   0.0468750

     Dense  grid:   853823 G-vectors     FFT dimensions: (  50,  50, 768)

     Smooth grid:   302525 G-vectors     FFT dimensions: (  36,  36, 540)

     Estimated max dynamical RAM per process >     171.88 MB

     Estimated total dynamical RAM >       4.03 GB

     Initial potential from superposition of free atoms

     starting charge      91.9979, renormalised to      92.0000

     negative rho (up, down):  1.718E-04 0.000E+00


     %%%%%%%%%%%%%%%%%%%%%%%%%%%%%%%%%%%%%%%%%%%%%%%%%%%%%%%%%%%%%%%%%%%%%%%%
     %                                                                      %
     % You are using vdW-DF, which was implemented by the Thonhauser group. %
     % Please cite the following two papers that made this development      %
     % possible and the two reviews that describe the various versions:     %
     %                                                                      %
     %   T. Thonhauser et al., PRL 115, 136402 (2015).                      %
     %   T. Thonhauser et al., PRB 76, 125112 (2007).                       %
     %   K. Berland et al., Rep. Prog. Phys. 78, 066501 (2015).             %
     %   D.C. Langreth et al., J. Phys.: Condens. Matter 21, 084203 (2009). %
     %                                                                      %
     % If you are calculating stress with vdW-DF, please also cite:         %
     %                                                                      %
     %   R. Sabatini et al., J. Phys.: Condens. Matter 24, 424209 (2012).   %
     %                                                                      %
     %%%%%%%%%%%%%%%%%%%%%%%%%%%%%%%%%%%%%%%%%%%%%%%%%%%%%%%%%%%%%%%%%%%%%%%%

     %%%%%%%%%%%%%%%%%%%%%%%%%%%%%%%%%%%%%%%%%%%%%%%%%%%%%%%%%%%%%%%%%%%%%%%%
     %                                                                      %
     %  vdW-DF NEWS:                                                        %
     %                                                                      %
     %  * vdW-DF3 is now available. DOI: 10.1021/acs.jctc.0c00471           %
     %    use with input_dft = 'vdW-DF3-opt1' or 'vdW-DF3-opt2'             %
     %                                                                      %
     %  * Unscreened and range-separated hybrid vdW-DF-cx functionals       %
     %    DOI: 10.1063/1.4986522 and 10.1088/1361-648X/ac2ad2               %
     %    use with input_dft = 'vdW-DF-cx0'    and 'vdW-DF-ahcx'            %
     %  * Unscreened and range-separated hybrid vdW-DF2-b86r functionals    %
     %    DOI: 10.1063/1.4986522 and DOI: 10.1103/PhysRevX.12.041003        %
     %    use with input_dft = 'vdW-DF2-br0' and 'vdW-DF2-ahbr'             %
     %                                                                      %
     %%%%%%%%%%%%%%%%%%%%%%%%%%%%%%%%%%%%%%%%%%%%%%%%%%%%%%%%%%%%%%%%%%%%%%%%


     Starting wfcs are   56 randomized atomic wfcs
     Checking if some PAW data can be deallocated... 

     total cpu time spent up to now is       12.1 secs

     per-process dynamical memory:    79.7 Mb

     Self-consistent Calculation

     iteration #  1     ecut=    80.00 Ry     beta= 0.30
     Davidson diagonalization with overlap
     ethr =  1.00E-02,  avg # of iterations =  4.3

     Threshold (ethr) on eigenvalues was too large:
     Diagonalizing with lowered threshold

     Davidson diagonalization with overlap
     ethr =  4.49E-04,  avg # of iterations =  2.1

     negative rho (up, down):  2.990E-05 0.000E+00

     total cpu time spent up to now is       50.4 secs

     total energy              =   -2326.96248448 Ry
     estimated scf accuracy    <       0.46086957 Ry

     iteration #  2     ecut=    80.00 Ry     beta= 0.30
     Davidson diagonalization with overlap
     ethr =  5.01E-04,  avg # of iterations =  1.2

     negative rho (up, down):  3.806E-06 0.000E+00

     total cpu time spent up to now is       66.7 secs

     total energy              =   -2326.91597052 Ry
     estimated scf accuracy    <       0.24381947 Ry

     iteration #  3     ecut=    80.00 Ry     beta= 0.30
     Davidson diagonalization with overlap
     ethr =  2.65E-04,  avg # of iterations =  3.7

     negative rho (up, down):  1.115E-06 0.000E+00

     total cpu time spent up to now is       85.3 secs

     total energy              =   -2326.92267168 Ry
     estimated scf accuracy    <       0.03236815 Ry

     iteration #  4     ecut=    80.00 Ry     beta= 0.30
     Davidson diagonalization with overlap
     ethr =  3.52E-05,  avg # of iterations =  8.9

     negative rho (up, down):  6.828E-07 0.000E+00

     total cpu time spent up to now is      106.7 secs

     total energy              =   -2326.92288465 Ry
     estimated scf accuracy    <       0.01054711 Ry

     iteration #  5     ecut=    80.00 Ry     beta= 0.30
     Davidson diagonalization with overlap
     c_bands:  1 eigenvalues not converged
     ethr =  1.15E-05,  avg # of iterations =  4.5

     negative rho (up, down):  4.497E-07 0.000E+00

     total cpu time spent up to now is      126.9 secs

     total energy              =   -2326.92186970 Ry
     estimated scf accuracy    <       0.00466329 Ry

     iteration #  6     ecut=    80.00 Ry     beta= 0.30
     Davidson diagonalization with overlap
     c_bands:  1 eigenvalues not converged
     ethr =  5.07E-06,  avg # of iterations =  6.1

     negative rho (up, down):  1.837E-07 0.000E+00

     total cpu time spent up to now is      148.2 secs

     total energy              =   -2326.92179607 Ry
     estimated scf accuracy    <       0.00171162 Ry

     iteration #  7     ecut=    80.00 Ry     beta= 0.30
     Davidson diagonalization with overlap
     c_bands:  1 eigenvalues not converged
     c_bands:  1 eigenvalues not converged
     c_bands:  1 eigenvalues not converged
     ethr =  1.86E-06,  avg # of iterations =  5.8

     negative rho (up, down):  1.701E-04 0.000E+00

     total cpu time spent up to now is      167.1 secs

     total energy              =   -2326.92155318 Ry
     estimated scf accuracy    <       0.00152137 Ry

     iteration #  8     ecut=    80.00 Ry     beta= 0.30
     Davidson diagonalization with overlap
     c_bands:  1 eigenvalues not converged
     ethr =  1.65E-06,  avg # of iterations =  8.1

     negative rho (up, down):  1.947E-04 0.000E+00

     total cpu time spent up to now is      186.9 secs

     total energy              =   -2326.92153208 Ry
     estimated scf accuracy    <       0.00075599 Ry

     iteration #  9     ecut=    80.00 Ry     beta= 0.30
     Davidson diagonalization with overlap
     ethr =  8.22E-07,  avg # of iterations =  1.7

     negative rho (up, down):  2.443E-03 0.000E+00

     total cpu time spent up to now is      204.3 secs

     total energy              =   -2326.92167375 Ry
     estimated scf accuracy    <       0.00050654 Ry

     iteration # 10     ecut=    80.00 Ry     beta= 0.30
     Davidson diagonalization with overlap
     ethr =  5.51E-07,  avg # of iterations =  7.0

     negative rho (up, down):  3.374E-03 0.000E+00

     total cpu time spent up to now is      223.8 secs

     total energy              =   -2326.92165796 Ry
     estimated scf accuracy    <       0.00040127 Ry

     iteration # 11     ecut=    80.00 Ry     beta= 0.30
     Davidson diagonalization with overlap
     ethr =  4.36E-07,  avg # of iterations =  3.4

     negative rho (up, down):  3.394E-03 0.000E+00

     total cpu time spent up to now is      241.5 secs

     total energy              =   -2326.92164464 Ry
     estimated scf accuracy    <       0.00034033 Ry

     iteration # 12     ecut=    80.00 Ry     beta= 0.30
     Davidson diagonalization with overlap
     ethr =  3.70E-07,  avg # of iterations =  1.1

     negative rho (up, down):  3.244E-03 0.000E+00

     total cpu time spent up to now is      258.1 secs

     total energy              =   -2326.92157651 Ry
     estimated scf accuracy    <       0.00030654 Ry

     iteration # 13     ecut=    80.00 Ry     beta= 0.30
     Davidson diagonalization with overlap
     ethr =  3.33E-07,  avg # of iterations =  5.7

     negative rho (up, down):  3.604E-03 0.000E+00

     total cpu time spent up to now is      277.0 secs

     total energy              =   -2326.92145840 Ry
     estimated scf accuracy    <       0.00023112 Ry

     iteration # 14     ecut=    80.00 Ry     beta= 0.30
     Davidson diagonalization with overlap
     ethr =  2.51E-07,  avg # of iterations =  6.6

     negative rho (up, down):  3.145E-03 0.000E+00

     total cpu time spent up to now is      297.1 secs

     total energy              =   -2326.92149075 Ry
     estimated scf accuracy    <       0.00007139 Ry

     iteration # 15     ecut=    80.00 Ry     beta= 0.30
     Davidson diagonalization with overlap
     ethr =  7.76E-08,  avg # of iterations =  1.5

     negative rho (up, down):  1.169E-03 0.000E+00

     total cpu time spent up to now is      314.0 secs

     total energy              =   -2326.92156223 Ry
     estimated scf accuracy    <       0.00004542 Ry

     iteration # 16     ecut=    80.00 Ry     beta= 0.30
     Davidson diagonalization with overlap
     ethr =  4.94E-08,  avg # of iterations =  4.6

     negative rho (up, down):  7.649E-04 0.000E+00

     total cpu time spent up to now is      335.3 secs

     total energy              =   -2326.92158272 Ry
     estimated scf accuracy    <       0.00000487 Ry

     iteration # 17     ecut=    80.00 Ry     beta= 0.30
     Davidson diagonalization with overlap
     ethr =  5.29E-09,  avg # of iterations =  4.5

     negative rho (up, down):  3.030E-04 0.000E+00

     total cpu time spent up to now is      354.5 secs

     total energy              =   -2326.92159422 Ry
     estimated scf accuracy    <       0.00000207 Ry

     iteration # 18     ecut=    80.00 Ry     beta= 0.30
     Davidson diagonalization with overlap
     ethr =  2.25E-09,  avg # of iterations =  7.6

     negative rho (up, down):  2.428E-04 0.000E+00

     total cpu time spent up to now is      378.0 secs

     total energy              =   -2326.92159670 Ry
     estimated scf accuracy    <       0.00000050 Ry

     iteration # 19     ecut=    80.00 Ry     beta= 0.30
     Davidson diagonalization with overlap
     ethr =  5.45E-10,  avg # of iterations =  2.2

     negative rho (up, down):  2.290E-04 0.000E+00

     total cpu time spent up to now is      396.6 secs

     total energy              =   -2326.92159531 Ry
     estimated scf accuracy    <       0.00000017 Ry

     iteration # 20     ecut=    80.00 Ry     beta= 0.30
     Davidson diagonalization with overlap
     ethr =  1.89E-10,  avg # of iterations =  2.6

     negative rho (up, down):  2.307E-04 0.000E+00

     total cpu time spent up to now is      419.7 secs

     total energy              =   -2326.92159531 Ry
     estimated scf accuracy    <       0.00000003 Ry

     iteration # 21     ecut=    80.00 Ry     beta= 0.30
     Davidson diagonalization with overlap
     ethr =  3.36E-11,  avg # of iterations =  2.0

     negative rho (up, down):  2.065E-04 0.000E+00

     total cpu time spent up to now is      437.9 secs

     total energy              =   -2326.92159586 Ry
     estimated scf accuracy    <       0.00000001 Ry

     iteration # 22     ecut=    80.00 Ry     beta= 0.30
     Davidson diagonalization with overlap
     ethr =  1.56E-11,  avg # of iterations =  2.3

     negative rho (up, down):  2.006E-04 0.000E+00

     total cpu time spent up to now is      458.0 secs

     End of self-consistent calculation

          k = 0.0000 0.0000 0.0000 ( 37787 PWs)   bands (ev):

   -61.8954 -61.8945 -48.2904 -48.2904 -48.2900 -48.2900 -48.2889 -48.2889
   -48.2886 -48.2886 -48.2448 -48.2448 -48.2444 -48.2444 -48.2433 -48.2433
   -48.2431 -48.2431 -48.2262 -48.2256 -48.2247 -48.2244 -36.0139 -36.0128
   -35.8985 -35.8985 -35.8972 -35.8972 -15.2935 -15.2900 -14.4753 -14.4738
    -6.4365  -6.4335  -3.3600  -3.3600  -3.3538  -3.3538  -3.3354  -3.3353
    -1.5892  -1.5880  -1.0636  -1.0636  -1.0607  -1.0607   0.2296   0.2296
     0.2324   0.2324   2.9481   2.9481   2.9502   2.9503   3.2597

          k = 0.0000 0.0722 0.0000 ( 37755 PWs)   bands (ev):

   -61.8945 -61.8935 -48.2903 -48.2902 -48.2900 -48.2898 -48.2889 -48.2887
   -48.2886 -48.2884 -48.2449 -48.2448 -48.2445 -48.2444 -48.2434 -48.2434
   -48.2432 -48.2431 -48.2261 -48.2255 -48.2246 -48.2243 -36.0117 -36.0106
   -35.9091 -35.9078 -35.9010 -35.8996 -15.2367 -15.2332 -14.4458 -14.4443
    -6.3588  -6.3557  -3.8324  -3.8285  -3.3280  -3.3218  -2.9324  -2.9303
    -1.6273  -1.6266  -1.2533  -1.2504  -1.2106  -1.2075   0.1221   0.1242
     0.3426   0.3451   2.6271   2.6300   2.8995   2.9015   3.3665

          k = 0.0000 0.1443 0.0000 ( 37697 PWs)   bands (ev):

   -61.8917 -61.8908 -48.2903 -48.2899 -48.2896 -48.2892 -48.2888 -48.2886
   -48.2881 -48.2878 -48.2451 -48.2449 -48.2446 -48.2445 -48.2437 -48.2435
   -48.2433 -48.2431 -48.2258 -48.2253 -48.2244 -48.2240 -36.0053 -36.0042
   -35.9393 -35.9379 -35.9079 -35.9066 -15.0703 -15.0669 -14.3597 -14.3579
    -6.1335  -6.1305  -4.3182  -4.3139  -3.2527  -3.2466  -2.7130  -2.7115
    -2.0767  -2.0744  -1.4981  -1.4947  -1.4548  -1.4544   0.0038   0.0048
     0.5332   0.5351   2.0333   2.0356   2.7998   2.8016   3.6268

          k = 0.0000 0.2165 0.0000 ( 37653 PWs)   bands (ev):

   -61.8876 -61.8867 -48.2903 -48.2899 -48.2888 -48.2888 -48.2886 -48.2884
   -48.2873 -48.2870 -48.2454 -48.2451 -48.2448 -48.2445 -48.2440 -48.2436
   -48.2434 -48.2432 -48.2254 -48.2249 -48.2240 -48.2236 -35.9961 -35.9950
   -35.9837 -35.9824 -35.9182 -35.9169 -14.8074 -14.8041 -14.2233 -14.2213
    -5.7929  -5.7898  -4.7477  -4.7431  -3.2571  -3.2540  -3.2011  -3.1951
    -2.4340  -2.4333  -1.7219  -1.7181  -1.5558  -1.5554  -0.0270  -0.0269
     0.6397   0.6410   1.6719   1.6737   2.7343   2.7361   3.9947

          k = 0.0000 0.2887 0.0000 ( 37721 PWs)   bands (ev):

   -61.8827 -61.8818 -48.2903 -48.2899 -48.2888 -48.2885 -48.2879 -48.2875
   -48.2864 -48.2862 -48.2458 -48.2452 -48.2449 -48.2446 -48.2444 -48.2438
   -48.2436 -48.2432 -48.2250 -48.2244 -48.2235 -48.2232 -36.0368 -36.0354
   -35.9842 -35.9831 -35.9304 -35.9291 -14.4742 -14.4709 -14.0455 -14.0432
    -5.4814  -5.4779  -4.9876  -4.9836  -4.2791  -4.2756  -3.2555  -3.2498
    -2.6194  -2.6194  -1.8090  -1.8083  -1.7654  -1.7614   0.0542   0.0546
     0.6447   0.6458   1.7786   1.7804   2.7355   2.7373   4.4634

          k = 0.0000 0.3608 0.0000 ( 37749 PWs)   bands (ev):

   -61.8779 -61.8770 -48.2903 -48.2898 -48.2889 -48.2884 -48.2870 -48.2867
   -48.2855 -48.2853 -48.2462 -48.2453 -48.2451 -48.2448 -48.2446 -48.2439
   -48.2438 -48.2433 -48.2245 -48.2240 -48.2231 -48.2227 -36.0887 -36.0873
   -35.9728 -35.9718 -35.9426 -35.9413 -14.1259 -14.1227 -13.8260 -13.8235
    -5.5983  -5.5940  -5.2365  -5.2333  -4.7234  -4.7203  -3.4040  -3.3986
    -2.9796  -2.9795  -2.0743  -2.0735  -1.6602  -1.6562   0.3137   0.3140
     0.6217   0.6229   2.1974   2.1995   2.7721   2.7741   5.0039

          k = 0.0000 0.4330 0.0000 ( 37785 PWs)   bands (ev):

   -61.8738 -61.8729 -48.2904 -48.2897 -48.2889 -48.2883 -48.2863 -48.2859
   -48.2848 -48.2845 -48.2466 -48.2455 -48.2452 -48.2452 -48.2447 -48.2441
   -48.2439 -48.2434 -48.2241 -48.2236 -48.2227 -48.2224 -36.1325 -36.1310
   -35.9632 -35.9622 -35.9529 -35.9515 -13.8620 -13.8587 -13.5471 -13.5445
    -6.1987  -6.1949  -5.5763  -5.5731  -4.5337  -4.5312  -3.5632  -3.5579
    -3.2341  -3.2333  -2.2477  -2.2471  -1.5265  -1.5229   0.6362   0.6380
     0.6786   0.6787   2.7127   2.7152   2.8086   2.8109   5.1713

          k = 0.0000 0.5052 0.0000 ( 37822 PWs)   bands (ev):

   -61.8710 -61.8701 -48.2904 -48.2897 -48.2890 -48.2883 -48.2857 -48.2854
   -48.2842 -48.2840 -48.2468 -48.2456 -48.2454 -48.2453 -48.2448 -48.2441
   -48.2440 -48.2434 -48.2239 -48.2234 -48.2224 -48.2221 -36.1615 -36.1600
   -35.9598 -35.9584 -35.9567 -35.9557 -13.7168 -13.7133 -13.2852 -13.2827
    -6.7563  -6.7524  -5.5976  -5.5951  -4.7008  -4.6984  -3.6753  -3.6700
    -3.1140  -3.1126  -2.3759  -2.3753  -1.4393  -1.4361   0.6854   0.6876
     1.0198   1.0199   2.8311   2.8336   3.1596   3.1621   4.6775

          k = 0.0000-0.5774 0.0000 ( 37832 PWs)   bands (ev):

   -61.8700 -61.8691 -48.2904 -48.2896 -48.2890 -48.2882 -48.2856 -48.2852
   -48.2841 -48.2839 -48.2469 -48.2456 -48.2455 -48.2454 -48.2448 -48.2442
   -48.2440 -48.2434 -48.2238 -48.2233 -48.2223 -48.2220 -36.1717 -36.1702
   -35.9622 -35.9608 -35.9545 -35.9535 -13.6693 -13.6657 -13.1787 -13.1762
    -6.9615  -6.9577  -5.5680  -5.5660  -4.8437  -4.8410  -3.7149  -3.7097
    -2.9854  -2.9838  -2.4443  -2.4438  -1.4116  -1.4085   0.7129   0.7154
     1.1666   1.1667   2.8384   2.8409   3.3798   3.3819   4.3512

          k = 0.0625 0.1083 0.0000 ( 37709 PWs)   bands (ev):

   -61.8926 -61.8917 -48.2903 -48.2899 -48.2898 -48.2894 -48.2888 -48.2886
   -48.2883 -48.2881 -48.2450 -48.2449 -48.2445 -48.2445 -48.2436 -48.2434
   -48.2432 -48.2432 -48.2259 -48.2254 -48.2245 -48.2241 -36.0074 -36.0063
   -35.9292 -35.9279 -35.9059 -35.9046 -15.1251 -15.1216 -14.3880 -14.3864
    -6.2069  -6.2038  -4.1893  -4.1850  -3.2815  -3.2754  -2.7334  -2.7318
    -1.8757  -1.8742  -1.4983  -1.4949  -1.3797  -1.3786   0.0642   0.0656
     0.4329   0.4349   2.2611   2.2637   2.7558   2.7577   3.5478

          k = 0.0625 0.1804 0.0000 ( 37703 PWs)   bands (ev):

   -61.8892 -61.8883 -48.2902 -48.2899 -48.2892 -48.2888 -48.2888 -48.2885
   -48.2877 -48.2874 -48.2453 -48.2450 -48.2447 -48.2445 -48.2439 -48.2436
   -48.2433 -48.2432 -48.2256 -48.2250 -48.2241 -48.2238 -35.9994 -35.9983
   -35.9658 -35.9645 -35.9154 -35.9141 -14.9100 -14.9066 -14.2769 -14.2751
    -5.9189  -5.9158  -4.6030  -4.5985  -3.2759  -3.2700  -2.8101  -2.8080
    -2.4528  -2.4507  -1.7530  -1.7499  -1.4115  -1.4110   0.0638   0.0644
     0.4337   0.4348   1.9412   1.9432   2.5819   2.5835   3.8561

          k = 0.0625 0.2526 0.0000 ( 37702 PWs)   bands (ev):

   -61.8847 -61.8838 -48.2902 -48.2898 -48.2887 -48.2885 -48.2883 -48.2880
   -48.2869 -48.2866 -48.2457 -48.2451 -48.2448 -48.2446 -48.2443 -48.2437
   -48.2435 -48.2433 -48.2251 -48.2246 -48.2237 -48.2234 -36.0135 -36.0121
   -35.9888 -35.9877 -35.9278 -35.9265 -14.6099 -14.6066 -14.1209 -14.1187
    -5.5514  -5.5482  -4.9473  -4.9427  -3.8349  -3.8312  -3.2217  -3.2169
    -2.5986  -2.5971  -1.9630  -1.9606  -1.4430  -1.4419  -0.0000   0.0001
     0.5138   0.5146   1.8335   1.8351   2.5533   2.5550   4.2727

          k = 0.0625 0.3248 0.0000 ( 37734 PWs)   bands (ev):

   -61.8798 -61.8789 -48.2902 -48.2897 -48.2888 -48.2884 -48.2875 -48.2871
   -48.2860 -48.2857 -48.2461 -48.2453 -48.2450 -48.2447 -48.2447 -48.2439
   -48.2437 -48.2433 -48.2247 -48.2242 -48.2233 -48.2229 -36.0645 -36.0630
   -35.9775 -35.9765 -35.9412 -35.9398 -14.2615 -14.2583 -13.9273 -13.9249
    -5.4444  -5.4402  -4.9234  -4.9204  -4.7791  -4.7754  -3.4611  -3.4567
    -2.7242  -2.7231  -2.2780  -2.2758  -1.4330  -1.4309   0.0505   0.0507
     0.6624   0.6632   1.9697   1.9712   2.6464   2.6483   4.7867

          k = 0.0625 0.3969 0.0000 ( 37770 PWs)   bands (ev):

   -61.8753 -61.8744 -48.2902 -48.2896 -48.2888 -48.2883 -48.2866 -48.2863
   -48.2852 -48.2849 -48.2464 -48.2455 -48.2451 -48.2450 -48.2447 -48.2441
   -48.2438 -48.2434 -48.2243 -48.2238 -48.2228 -48.2225 -36.1112 -36.1097
   -35.9671 -35.9660 -35.9535 -35.9521 -13.9453 -13.9421 -13.6831 -13.6805
    -5.8145  -5.8104  -5.4802  -5.4768  -4.5579  -4.5550  -3.7062  -3.7021
    -2.9884  -2.9870  -2.4961  -2.4940  -1.3651  -1.3627   0.2472   0.2476
     0.8193   0.8202   2.2558   2.2575   2.8190   2.8214   5.3129

          k = 0.0625 0.4691 0.0000 ( 37798 PWs)   bands (ev):

   -61.8719 -61.8710 -48.2903 -48.2895 -48.2888 -48.2881 -48.2860 -48.2857
   -48.2845 -48.2843 -48.2467 -48.2456 -48.2453 -48.2452 -48.2448 -48.2442
   -48.2438 -48.2434 -48.2240 -48.2234 -48.2225 -48.2222 -36.1467 -36.1452
   -35.9633 -35.9619 -35.9587 -35.9576 -13.7479 -13.7444 -13.3975 -13.3949
    -6.4695  -6.4657  -5.5866  -5.5836  -4.5524  -4.5500  -3.8000  -3.7956
    -3.1034  -3.1016  -2.6014  -2.5998  -1.3251  -1.3228   0.4887   0.4900
     1.0015   1.0023   2.4799   2.4819   3.0762   3.0789   5.1476

          k = 0.0625 0.5413 0.0000 ( 37791 PWs)   bands (ev):

   -61.8700 -61.8691 -48.2903 -48.2895 -48.2888 -48.2881 -48.2857 -48.2853
   -48.2842 -48.2840 -48.2468 -48.2457 -48.2454 -48.2453 -48.2448 -48.2443
   -48.2439 -48.2435 -48.2238 -48.2233 -48.2223 -48.2220 -36.1659 -36.1644
   -35.9682 -35.9668 -35.9545 -35.9535 -13.6547 -13.6511 -13.2023 -13.1998
    -6.8563  -6.8525  -5.5690  -5.5667  -4.7622  -4.7596  -3.8176  -3.8128
    -2.9902  -2.9884  -2.6737  -2.6724  -1.3262  -1.3240   0.6687   0.6708
     1.1313   1.1317   2.5771   2.5793   3.3194   3.3216   4.6477

          k = 0.1250 0.2165 0.0000 ( 37731 PWs)   bands (ev):

   -61.8854 -61.8845 -48.2902 -48.2898 -48.2887 -48.2885 -48.2884 -48.2882
   -48.2871 -48.2868 -48.2456 -48.2451 -48.2448 -48.2446 -48.2442 -48.2436
   -48.2434 -48.2433 -48.2252 -48.2247 -48.2238 -48.2234 -36.0037 -36.0023
   -35.9906 -35.9895 -35.9284 -35.9270 -14.6564 -14.6531 -14.1467 -14.1446
    -5.5821  -5.5790  -4.9149  -4.9102  -3.6933  -3.6888  -3.0085  -3.0064
    -2.8631  -2.8589  -1.9307  -1.9287  -1.3214  -1.3208   0.0541   0.0545
     0.3153   0.3157   2.1669   2.1689   2.1859   2.1874   4.2106

          k = 0.1250 0.2887 0.0000 ( 37723 PWs)   bands (ev):

   -61.8809 -61.8800 -48.2901 -48.2896 -48.2886 -48.2882 -48.2878 -48.2874
   -48.2863 -48.2861 -48.2460 -48.2452 -48.2449 -48.2447 -48.2446 -48.2437
   -48.2436 -48.2434 -48.2248 -48.2243 -48.2234 -48.2230 -36.0472 -36.0458
   -35.9803 -35.9792 -35.9443 -35.9430 -14.3340 -14.3308 -13.9795 -13.9771
    -5.2683  -5.2643  -5.0792  -5.0756  -4.4611  -4.4573  -3.4610  -3.4579
    -2.9528  -2.9491  -2.1986  -2.1972  -1.1950  -1.1939  -0.1584  -0.1583
     0.6079   0.6083   1.8748   1.8757   2.4774   2.4798   4.6763

          k = 0.1250 0.3608 0.0000 ( 37761 PWs)   bands (ev):

   -61.8764 -61.8755 -48.2900 -48.2894 -48.2885 -48.2880 -48.2871 -48.2867
   -48.2856 -48.2853 -48.2463 -48.2454 -48.2451 -48.2449 -48.2448 -48.2440
   -48.2437 -48.2435 -48.2244 -48.2239 -48.2229 -48.2226 -36.0901 -36.0887
   -35.9704 -35.9694 -35.9601 -35.9587 -13.9939 -13.9907 -13.7786 -13.7759
    -5.4713  -5.4669  -5.2610  -5.2575  -4.6650  -4.6620  -3.8490  -3.8457
    -3.0521  -3.0490  -2.6288  -2.6274  -1.0642  -1.0628  -0.1232  -0.1231
     0.8902   0.8910   1.7928   1.7938   2.7866   2.7892   5.2288

          k = 0.1250 0.4330 0.0000 ( 37768 PWs)   bands (ev):

   -61.8726 -61.8717 -48.2899 -48.2893 -48.2885 -48.2879 -48.2864 -48.2861
   -48.2850 -48.2847 -48.2466 -48.2456 -48.2452 -48.2451 -48.2449 -48.2442
   -48.2437 -48.2436 -48.2240 -48.2235 -48.2226 -48.2223 -36.1261 -36.1247
   -35.9754 -35.9740 -35.9602 -35.9592 -13.7439 -13.7406 -13.5154 -13.5127
    -6.0609  -6.0571  -5.5200  -5.5165  -4.3943  -4.3917  -4.0763  -4.0727
    -3.1637  -3.1611  -2.9775  -2.9757  -1.0322  -1.0309   0.1201   0.1207
     1.0804   1.0815   1.9025   1.9038   3.0659   3.0686   5.6155

          k = 0.1250 0.5052 0.0000 ( 37794 PWs)   bands (ev):

   -61.8700 -61.8691 -48.2899 -48.2892 -48.2884 -48.2877 -48.2860 -48.2857
   -48.2845 -48.2843 -48.2467 -48.2458 -48.2453 -48.2452 -48.2449 -48.2444
   -48.2437 -48.2436 -48.2238 -48.2233 -48.2223 -48.2220 -36.1500 -36.1486
   -35.9845 -35.9831 -35.9545 -35.9535 -13.6120 -13.6085 -13.2665 -13.2638
    -6.5642  -6.5604  -5.5533  -5.5503  -4.5670  -4.5644  -4.0280  -4.0241
    -3.2450  -3.2427  -3.0414  -3.0395  -1.0894  -1.0884   0.4578   0.4590
     1.1297   1.1308   2.0691   2.0707   3.2531   3.2555   5.2847

          k = 0.1250 0.5774 0.0000 ( 37780 PWs)   bands (ev):

   -61.8691 -61.8682 -48.2899 -48.2891 -48.2884 -48.2877 -48.2859 -48.2855
   -48.2844 -48.2842 -48.2468 -48.2459 -48.2454 -48.2452 -48.2449 -48.2445
   -48.2438 -48.2436 -48.2237 -48.2232 -48.2223 -48.2220 -36.1584 -36.1569
   -35.9877 -35.9864 -35.9525 -35.9515 -13.5684 -13.5648 -13.1671 -13.1645
    -6.7477  -6.7439  -5.5452  -5.5427  -4.6816  -4.6789  -4.0244  -4.0204
    -3.2742  -3.2720  -2.9960  -2.9941  -1.1284  -1.1275   0.6594   0.6611
     1.0813   1.0820   2.1521   2.1538   3.3179   3.3200   5.0248

          k = 0.1875 0.3248 0.0000 ( 37725 PWs)   bands (ev):

   -61.8768 -61.8759 -48.2898 -48.2893 -48.2884 -48.2879 -48.2873 -48.2869
   -48.2858 -48.2855 -48.2463 -48.2453 -48.2451 -48.2449 -48.2449 -48.2439
   -48.2437 -48.2436 -48.2244 -48.2239 -48.2230 -48.2227 -36.0806 -36.0792
   -35.9725 -35.9714 -35.9637 -35.9624 -14.0092 -14.0061 -13.8132 -13.8106
    -5.3389  -5.3345  -5.0924  -5.0886  -4.7540  -4.7511  -3.8520  -3.8495
    -3.3330  -3.3290  -2.5095  -2.5084  -0.8957  -0.8945  -0.3031  -0.3030
     0.8887   0.8892   1.6058   1.6064   2.7760   2.7786   5.1883

          k = 0.1875 0.3969 0.0000 ( 37753 PWs)   bands (ev):

   -61.8730 -61.8721 -48.2896 -48.2890 -48.2881 -48.2876 -48.2868 -48.2864
   -48.2853 -48.2851 -48.2465 -48.2455 -48.2452 -48.2451 -48.2449 -48.2441
   -48.2438 -48.2436 -48.2240 -48.2236 -48.2226 -48.2223 -36.1093 -36.1079
   -35.9877 -35.9863 -35.9610 -35.9600 -13.7062 -13.7031 -13.6158 -13.6130
    -5.6921  -5.6883  -5.4427  -5.4387  -4.3534  -4.3507  -4.2041  -4.2013
    -3.6586  -3.6551  -2.9083  -2.9070  -0.6894  -0.6885  -0.2351  -0.2351
     1.1099   1.1107   1.5253   1.5258   3.0683   3.0710   5.7450

          k = 0.1875 0.4691 0.0000 ( 37759 PWs)   bands (ev):

   -61.8700 -61.8691 -48.2894 -48.2887 -48.2880 -48.2873 -48.2865 -48.2861
   -48.2850 -48.2847 -48.2466 -48.2458 -48.2453 -48.2452 -48.2449 -48.2444
   -48.2439 -48.2436 -48.2238 -48.2233 -48.2223 -48.2221 -36.1302 -36.1288
   -36.0048 -36.0034 -35.9545 -35.9535 -13.5458 -13.5425 -13.3535 -13.3507
    -6.1763  -6.1726  -5.5100  -5.5064  -4.4260  -4.4230  -4.1173  -4.1145
    -3.8842  -3.8814  -3.1783  -3.1767  -0.7409  -0.7405   0.1065   0.1071
     1.1499   1.1511   1.6762   1.6769   3.2322   3.2348   5.8017

          k = 0.1875 0.5413 0.0000 ( 37793 PWs)   bands (ev):

   -61.8685 -61.8676 -48.2893 -48.2885 -48.2878 -48.2871 -48.2863 -48.2859
   -48.2848 -48.2846 -48.2467 -48.2460 -48.2453 -48.2453 -48.2449 -48.2446
   -48.2440 -48.2436 -48.2236 -48.2232 -48.2222 -48.2219 -36.1412 -36.1397
   -36.0144 -36.0130 -35.9509 -35.9499 -13.4683 -13.4648 -13.1840 -13.1812
    -6.4536  -6.4499  -5.5385  -5.5353  -4.5195  -4.5165  -4.1601  -4.1570
    -3.9589  -3.9567  -3.1995  -3.1976  -0.8288  -0.8285   0.4733   0.4741
     1.0023   1.0036   1.8868   1.8879   3.2281   3.2303   5.6596

          k = 0.2500 0.4330 0.0000 ( 37711 PWs)   bands (ev):

   -61.8700 -61.8691 -48.2891 -48.2884 -48.2877 -48.2870 -48.2867 -48.2863
   -48.2852 -48.2849 -48.2466 -48.2457 -48.2454 -48.2452 -48.2449 -48.2443
   -48.2441 -48.2436 -48.2238 -48.2233 -48.2223 -48.2221 -36.1198 -36.1184
   -36.0154 -36.0140 -35.9545 -35.9535 -13.4840 -13.4808 -13.4239 -13.4209
    -5.9558  -5.9521  -5.4784  -5.4745  -4.4075  -4.4051  -4.2475  -4.2442
    -4.0430  -4.0401  -3.2740  -3.2728  -0.3300  -0.3296  -0.3093  -0.3082
     1.1454   1.1463   1.5515   1.5516   3.2306   3.2332   6.0125

          k = 0.2500 0.5052 0.0000 ( 37776 PWs)   bands (ev):

   -61.8681 -61.8672 -48.2888 -48.2881 -48.2873 -48.2867 -48.2866 -48.2863
   -48.2852 -48.2850 -48.2465 -48.2460 -48.2456 -48.2451 -48.2449 -48.2445
   -48.2442 -48.2435 -48.2236 -48.2231 -48.2222 -48.2219 -36.1224 -36.1209
   -36.0384 -36.0370 -35.9501 -35.9491 -13.3743 -13.3710 -13.2369 -13.2339
    -6.1035  -6.0999  -5.5302  -5.5263  -4.6669  -4.6634  -4.3848  -4.3826
    -3.9692  -3.9669  -3.5119  -3.5103  -0.4324  -0.4323   0.0633   0.0638
     0.9655   0.9669   1.8430   1.8434   3.1581   3.1603   5.7884

          k = 0.2500 0.5774 0.0000 ( 37791 PWs)   bands (ev):

   -61.8674 -61.8665 -48.2886 -48.2879 -48.2872 -48.2868 -48.2865 -48.2864
   -48.2853 -48.2850 -48.2465 -48.2461 -48.2456 -48.2451 -48.2449 -48.2447
   -48.2443 -48.2435 -48.2235 -48.2231 -48.2221 -48.2219 -36.1218 -36.1203
   -36.0480 -36.0466 -35.9485 -35.9475 -13.3357 -13.3323 -13.1670 -13.1640
    -6.1464  -6.1428  -5.5604  -5.5566  -4.8198  -4.8163  -4.2050  -4.2028
    -4.1855  -4.1835  -3.5127  -3.5109  -0.4832  -0.4832   0.3220   0.3220
     0.7583   0.7602   2.0617   2.0625   3.0211   3.0229   5.6872

          k = 0.3125 0.5413 0.0000 ( 37789 PWs)   bands (ev):

   -61.8670 -61.8661 -48.2882 -48.2875 -48.2871 -48.2867 -48.2867 -48.2861
   -48.2856 -48.2853 -48.2464 -48.2461 -48.2458 -48.2449 -48.2448 -48.2447
   -48.2445 -48.2435 -48.2235 -48.2231 -48.2221 -48.2218 -36.1043 -36.1029
   -36.0705 -36.0690 -35.9477 -35.9467 -13.2563 -13.2529 -13.1944 -13.1913
    -5.8422  -5.8386  -5.5701  -5.5661  -5.2595  -5.2560  -4.2181  -4.2162
    -3.8799  -3.8780  -3.8775  -3.8765  -0.1459  -0.1453   0.0315   0.0317
     0.6586   0.6608   2.2697   2.2705   2.8339   2.8355   5.6190

     the Fermi energy is    -0.2949 ev

!    total energy              =   -2326.92159588 Ry
     total all-electron energy =    -35628.669425 Ry
     estimated scf accuracy    <          2.9E-09 Ry
     smearing contrib. (-TS)   =       0.00090304 Ry
     internal energy E=F+TS    =   -2326.92249892 Ry

     The total energy is F=E-TS. E is the sum of the following terms:
     one-electron contribution =  -15445.99023097 Ry
     hartree contribution      =    7711.22837928 Ry
     xc contribution           =    -152.42420142 Ry
     ewald contribution        =    6570.77803178 Ry
     one-center paw contrib.   =   -1010.51447759 Ry

     convergence has been achieved in  22 iterations

     Writing all to output data dir ./tmp/cleave_040/mose2_cleave_040.save/ :
     XML data file, charge density, pseudopotentials, collected wavefunctions

     init_run     :     11.71s CPU     11.90s WALL (       1 calls)
     electrons    :    433.49s CPU    445.97s WALL (       1 calls)

     Called by init_run:
     wfcinit      :      5.36s CPU      5.38s WALL (       1 calls)
     potinit      :      5.72s CPU      5.76s WALL (       1 calls)
     hinit0       :      0.05s CPU      0.06s WALL (       1 calls)

     Called by electrons:
     c_bands      :    361.54s CPU    369.01s WALL (      23 calls)
     sum_band     :     47.26s CPU     49.85s WALL (      23 calls)
     v_of_rho     :     14.55s CPU     15.33s WALL (      23 calls)
     newd         :      9.06s CPU     10.71s WALL (      23 calls)
     PAW_pot      :      1.46s CPU      1.50s WALL (      23 calls)
     mix_rho      :      5.48s CPU      5.56s WALL (      23 calls)
     vdW_kernel   :      5.27s CPU      5.27s WALL (       1 calls)

     Called by c_bands:
     init_us_2    :      1.97s CPU      1.99s WALL (    1410 calls)
     cegterg      :    350.58s CPU    357.70s WALL (     690 calls)

     Called by *egterg:
     cdiaghg      :      9.70s CPU      9.71s WALL (    3592 calls)
     h_psi        :    137.78s CPU    139.63s WALL (    3652 calls)
     s_psi        :     19.68s CPU     19.71s WALL (    3652 calls)
     g_psi        :      0.25s CPU      0.25s WALL (    2932 calls)

     Called by h_psi:
     h_psi:calbec :     46.25s CPU     47.35s WALL (    3652 calls)
     vloc_psi     :     69.56s CPU     70.28s WALL (    3652 calls)
                                        0.00s GPU  (    3652 calls)
     add_vuspsi   :     21.66s CPU     21.69s WALL (    3652 calls)

     General routines
     calbec       :     65.86s CPU     67.41s WALL (    4342 calls)
     fft          :      6.82s CPU      7.03s WALL (    1448 calls)
     ffts         :      2.14s CPU      2.15s WALL (    2629 calls)
     fftw         :     81.63s CPU     82.49s WALL (  211426 calls)
     interpolate  :      0.11s CPU      0.11s WALL (      23 calls)

     Parallel routines

     PWSCF        :   7m25.79s CPU   7m38.64s WALL


   This run was terminated on:  14: 7:26  20Jun2026            

=------------------------------------------------------------------------------=
   JOB DONE.
=------------------------------------------------------------------------------=
Note: The following floating-point exceptions are signalling: IEEE_UNDERFLOW_FLAG IEEE_DENORMAL
Note: The following floating-point exceptions are signalling: IEEE_UNDERFLOW_FLAG IEEE_DENORMAL
Note: The following floating-point exceptions are signalling: IEEE_UNDERFLOW_FLAG IEEE_DENORMAL
Note: The following floating-point exceptions are signalling: IEEE_UNDERFLOW_FLAG IEEE_DENORMAL
Note: The following floating-point exceptions are signalling: IEEE_UNDERFLOW_FLAG IEEE_DENORMAL
Note: The following floating-point exceptions are signalling: IEEE_UNDERFLOW_FLAG IEEE_DENORMAL
Note: The following floating-point exceptions are signalling: IEEE_UNDERFLOW_FLAG IEEE_DENORMAL
Note: The following floating-point exceptions are signalling: IEEE_UNDERFLOW_FLAG IEEE_DENORMAL
Note: The following floating-point exceptions are signalling: IEEE_UNDERFLOW_FLAG IEEE_DENORMAL
Note: The following floating-point exceptions are signalling: IEEE_UNDERFLOW_FLAG IEEE_DENORMAL
Note: The following floating-point exceptions are signalling: IEEE_UNDERFLOW_FLAG IEEE_DENORMAL
Note: The following floating-point exceptions are signalling: IEEE_UNDERFLOW_FLAG IEEE_DENORMAL
Note: The following floating-point exceptions are signalling: IEEE_UNDERFLOW_FLAG IEEE_DENORMAL
Note: The following floating-point exceptions are signalling: IEEE_UNDERFLOW_FLAG IEEE_DENORMAL
Note: The following floating-point exceptions are signalling: IEEE_UNDERFLOW_FLAG IEEE_DENORMAL
Note: The following floating-point exceptions are signalling: IEEE_UNDERFLOW_FLAG IEEE_DENORMAL
Note: The following floating-point exceptions are signalling: IEEE_UNDERFLOW_FLAG IEEE_DENORMAL
Note: The following floating-point exceptions are signalling: IEEE_UNDERFLOW_FLAG IEEE_DENORMAL
Note: The following floating-point exceptions are signalling: IEEE_UNDERFLOW_FLAG IEEE_DENORMAL
Note: The following floating-point exceptions are signalling: IEEE_UNDERFLOW_FLAG IEEE_DENORMAL
Note: The following floating-point exceptions are signalling: IEEE_UNDERFLOW_FLAG IEEE_DENORMAL
Note: The following floating-point exceptions are signalling: IEEE_UNDERFLOW_FLAG IEEE_DENORMAL
Note: The following floating-point exceptions are signalling: IEEE_UNDERFLOW_FLAG IEEE_DENORMAL
Note: The following floating-point exceptions are signalling: IEEE_UNDERFLOW_FLAG IEEE_DENORMAL
