
     Program PWSCF v.7.5 starts on 20Jun2026 at  8:53:23 

     This program is part of the open-source Quantum ESPRESSO suite
     for quantum simulation of materials; please cite
         "P. Giannozzi et al., J. Phys.:Condens. Matter 21 395502 (2009);
         "P. Giannozzi et al., J. Phys.:Condens. Matter 29 465901 (2017);
         "P. Giannozzi et al., J. Chem. Phys. 152 154105 (2020);
          URL http://www.quantum-espresso.org", 
     in publications or presentations arising from this work. More details at
     http://www.quantum-espresso.org/quote

     Parallel version (MPI), running on    24 processors

     MPI processes distributed on     1 nodes
     6582 MiB available memory on the printing compute node when the environment starts

     Waiting for input...
     Reading input from standard input

     Current dimensions of program PWSCF are:
     Max number of different atomic species (ntypx) = 10
     Max number of k-points (npk) =  40000
     Max angular momentum in pseudopotentials (lmaxx) =  4
     file Mo.pbe-spn-kjpaw_psl.1.0.0.UPF: wavefunction(s)  4S 4D renormalized
     file Se.pbe-dn-kjpaw_psl.1.0.0.UPF: wavefunction(s)  4S 4P 3D renormalized

     IMPORTANT: XC functional enforced from input :
     Exchange-correlation= VDW-DF2-B86R
                           (   1   4  26   0   2   0   0)
     Any further DFT definition will be discarded
     Please, verify this is what you really want


     R & G space division:  proc/nbgrp/npool/nimage =      24
     Subspace diagonalization in iterative solution of the eigenvalue problem:
     a serial algorithm will be used


     Parallelization info
     --------------------
     sticks:   dense  smooth     PW     G-vecs:    dense   smooth      PW
     Min          69      35     10                35537    12585    1924
     Max          70      36     11                35620    12648    1981
     Sum        1675     847    241               853823   302525   46513

     Using Slab Decomposition



     bravais-lattice index     =            4
     lattice parameter (alat)  =       6.1794  a.u.
     unit-cell volume          =    3124.5879 (a.u.)^3
     number of atoms/cell      =            6
     number of atomic types    =            2
     number of electrons       =        92.00
     number of Kohn-Sham states=           55
     kinetic-energy cutoff     =      80.0000  Ry
     charge density cutoff     =     640.0000  Ry
     scf convergence threshold =      1.0E-08
     mixing beta               =       0.3000
     number of iterations used =            8  local-TF  mixing
     Exchange-correlation= VDW-DF2-B86R
                           (   1   4  26   0   2   0   0)

     celldm(1)=   6.179404  celldm(2)=   0.000000  celldm(3)=  15.290520
     celldm(4)=   0.000000  celldm(5)=   0.000000  celldm(6)=   0.000000

     crystal axes: (cart. coord. in units of alat)
               a(1) = (   1.000000   0.000000   0.000000 )  
               a(2) = (  -0.500000   0.866025   0.000000 )  
               a(3) = (   0.000000   0.000000  15.290520 )  

     reciprocal axes: (cart. coord. in units 2 pi/alat)
               b(1) = (  1.000000  0.577350 -0.000000 )  
               b(2) = (  0.000000  1.154701  0.000000 )  
               b(3) = (  0.000000 -0.000000  0.065400 )  


     PseudoPot. # 1 for Mo read from file:
     ./pseudo/Mo.pbe-spn-kjpaw_psl.1.0.0.UPF
     MD5 check sum: 4396e0c640fcce5c25f020efccf1ab12
     Pseudo is Projector augmented-wave + core cor, Zval = 14.0
     Generated using &quot;atomic&quot; code by A. Dal Corso  v.6.3
     Shape of augmentation charge: PSQ
     Using radial grid of 1229 points,  6 beta functions with: 
                l(1) =   0
                l(2) =   0
                l(3) =   1
                l(4) =   1
                l(5) =   2
                l(6) =   2
     Q(r) pseudized with 0 coefficients 


     PseudoPot. # 2 for Se read from file:
     ./pseudo/Se.pbe-dn-kjpaw_psl.1.0.0.UPF
     MD5 check sum: ac240dd2bae32a30e0bf3a38df9c8785
     Pseudo is Projector augmented-wave + core cor, Zval = 16.0
     Generated using &quot;atomic&quot; code by A. Dal Corso  v.6.3
     Shape of augmentation charge: PSQ
     Using radial grid of 1211 points,  6 beta functions with: 
                l(1) =   0
                l(2) =   0
                l(3) =   1
                l(4) =   1
                l(5) =   2
                l(6) =   2
     Q(r) pseudized with 0 coefficients 


     atomic species   valence    mass     pseudopotential
     Mo               14.00    95.96000     Mo( 1.00)
     Se               16.00    78.96000     Se( 1.00)

      6 Sym. Ops. (no inversion) found



   Cartesian axes

     site n.     atom                  positions (alat units)
         1        Se     tau(   1) = (  -0.0000005   0.5773506   6.1238532  )
         2        Mo     tau(   2) = (   0.0000000   0.0000000   6.6502752  )
         3        Se     tau(   3) = (   0.5000005   0.2886748   7.1775994  )
         4        Se     tau(   4) = (  -0.0000005   0.5773506   8.1735015  )
         5        Mo     tau(   5) = (   0.5000005   0.2886748   8.7006881  )
         6        Se     tau(   6) = (   0.0000000   0.0000000   9.2278287  )

     number of k points=    30  Methfessel-Paxton smearing, width (Ry)=  0.0200
                       cart. coord. in units 2pi/alat
        k(    1) = (   0.0000000   0.0000000   0.0000000), wk =   0.0078125
        k(    2) = (   0.0000000   0.0721688   0.0000000), wk =   0.0468750
        k(    3) = (   0.0000000   0.1443376   0.0000000), wk =   0.0468750
        k(    4) = (   0.0000000   0.2165064   0.0000000), wk =   0.0468750
        k(    5) = (   0.0000000   0.2886751   0.0000000), wk =   0.0468750
        k(    6) = (   0.0000000   0.3608439   0.0000000), wk =   0.0468750
        k(    7) = (   0.0000000   0.4330127   0.0000000), wk =   0.0468750
        k(    8) = (   0.0000000   0.5051815   0.0000000), wk =   0.0468750
        k(    9) = (   0.0000000  -0.5773503   0.0000000), wk =   0.0234375
        k(   10) = (   0.0625000   0.1082532   0.0000000), wk =   0.0468750
        k(   11) = (   0.0625000   0.1804220   0.0000000), wk =   0.0937500
        k(   12) = (   0.0625000   0.2525907   0.0000000), wk =   0.0937500
        k(   13) = (   0.0625000   0.3247595   0.0000000), wk =   0.0937500
        k(   14) = (   0.0625000   0.3969283   0.0000000), wk =   0.0937500
        k(   15) = (   0.0625000   0.4690971   0.0000000), wk =   0.0937500
        k(   16) = (   0.0625000   0.5412659   0.0000000), wk =   0.0937500
        k(   17) = (   0.1250000   0.2165064   0.0000000), wk =   0.0468750
        k(   18) = (   0.1250000   0.2886751   0.0000000), wk =   0.0937500
        k(   19) = (   0.1250000   0.3608439   0.0000000), wk =   0.0937500
        k(   20) = (   0.1250000   0.4330127   0.0000000), wk =   0.0937500
        k(   21) = (   0.1250000   0.5051815   0.0000000), wk =   0.0937500
        k(   22) = (   0.1250000   0.5773503   0.0000000), wk =   0.0468750
        k(   23) = (   0.1875000   0.3247595   0.0000000), wk =   0.0468750
        k(   24) = (   0.1875000   0.3969283   0.0000000), wk =   0.0937500
        k(   25) = (   0.1875000   0.4690971   0.0000000), wk =   0.0937500
        k(   26) = (   0.1875000   0.5412659   0.0000000), wk =   0.0937500
        k(   27) = (   0.2500000   0.4330127   0.0000000), wk =   0.0468750
        k(   28) = (   0.2500000   0.5051815   0.0000000), wk =   0.0937500
        k(   29) = (   0.2500000   0.5773503   0.0000000), wk =   0.0468750
        k(   30) = (   0.3125000   0.5412659   0.0000000), wk =   0.0468750

     Dense  grid:   853823 G-vectors     FFT dimensions: (  50,  50, 768)

     Smooth grid:   302525 G-vectors     FFT dimensions: (  36,  36, 540)

     Estimated max dynamical RAM per process >     171.88 MB

     Estimated total dynamical RAM >       4.03 GB

     Initial potential from superposition of free atoms

     starting charge      91.9979, renormalised to      92.0000

     negative rho (up, down):  1.943E-04 0.000E+00


     %%%%%%%%%%%%%%%%%%%%%%%%%%%%%%%%%%%%%%%%%%%%%%%%%%%%%%%%%%%%%%%%%%%%%%%%
     %                                                                      %
     % You are using vdW-DF, which was implemented by the Thonhauser group. %
     % Please cite the following two papers that made this development      %
     % possible and the two reviews that describe the various versions:     %
     %                                                                      %
     %   T. Thonhauser et al., PRL 115, 136402 (2015).                      %
     %   T. Thonhauser et al., PRB 76, 125112 (2007).                       %
     %   K. Berland et al., Rep. Prog. Phys. 78, 066501 (2015).             %
     %   D.C. Langreth et al., J. Phys.: Condens. Matter 21, 084203 (2009). %
     %                                                                      %
     % If you are calculating stress with vdW-DF, please also cite:         %
     %                                                                      %
     %   R. Sabatini et al., J. Phys.: Condens. Matter 24, 424209 (2012).   %
     %                                                                      %
     %%%%%%%%%%%%%%%%%%%%%%%%%%%%%%%%%%%%%%%%%%%%%%%%%%%%%%%%%%%%%%%%%%%%%%%%

     %%%%%%%%%%%%%%%%%%%%%%%%%%%%%%%%%%%%%%%%%%%%%%%%%%%%%%%%%%%%%%%%%%%%%%%%
     %                                                                      %
     %  vdW-DF NEWS:                                                        %
     %                                                                      %
     %  * vdW-DF3 is now available. DOI: 10.1021/acs.jctc.0c00471           %
     %    use with input_dft = 'vdW-DF3-opt1' or 'vdW-DF3-opt2'             %
     %                                                                      %
     %  * Unscreened and range-separated hybrid vdW-DF-cx functionals       %
     %    DOI: 10.1063/1.4986522 and 10.1088/1361-648X/ac2ad2               %
     %    use with input_dft = 'vdW-DF-cx0'    and 'vdW-DF-ahcx'            %
     %  * Unscreened and range-separated hybrid vdW-DF2-b86r functionals    %
     %    DOI: 10.1063/1.4986522 and DOI: 10.1103/PhysRevX.12.041003        %
     %    use with input_dft = 'vdW-DF2-br0' and 'vdW-DF2-ahbr'             %
     %                                                                      %
     %%%%%%%%%%%%%%%%%%%%%%%%%%%%%%%%%%%%%%%%%%%%%%%%%%%%%%%%%%%%%%%%%%%%%%%%


     Starting wfcs are   56 randomized atomic wfcs
     Checking if some PAW data can be deallocated... 

     total cpu time spent up to now is       12.0 secs

     per-process dynamical memory:    79.7 Mb

     Self-consistent Calculation

     iteration #  1     ecut=    80.00 Ry     beta= 0.30
     Davidson diagonalization with overlap
     ethr =  1.00E-02,  avg # of iterations =  4.4

     Threshold (ethr) on eigenvalues was too large:
     Diagonalizing with lowered threshold

     Davidson diagonalization with overlap
     ethr =  4.31E-04,  avg # of iterations =  2.7

     negative rho (up, down):  6.763E-05 0.000E+00

     total cpu time spent up to now is       49.7 secs

     total energy              =   -2326.97603787 Ry
     estimated scf accuracy    <       0.44336006 Ry

     iteration #  2     ecut=    80.00 Ry     beta= 0.30
     Davidson diagonalization with overlap
     ethr =  4.82E-04,  avg # of iterations =  1.4

     negative rho (up, down):  5.170E-05 0.000E+00

     total cpu time spent up to now is       65.6 secs

     total energy              =   -2326.93112190 Ry
     estimated scf accuracy    <       0.22617155 Ry

     iteration #  3     ecut=    80.00 Ry     beta= 0.30
     Davidson diagonalization with overlap
     ethr =  2.46E-04,  avg # of iterations =  3.4

     negative rho (up, down):  3.099E-05 0.000E+00

     total cpu time spent up to now is       84.7 secs

     total energy              =   -2326.93867525 Ry
     estimated scf accuracy    <       0.02754927 Ry

     iteration #  4     ecut=    80.00 Ry     beta= 0.30
     Davidson diagonalization with overlap
     ethr =  2.99E-05,  avg # of iterations =  7.1

     negative rho (up, down):  1.838E-05 0.000E+00

     total cpu time spent up to now is      105.6 secs

     total energy              =   -2326.93932758 Ry
     estimated scf accuracy    <       0.00846325 Ry

     iteration #  5     ecut=    80.00 Ry     beta= 0.30
     Davidson diagonalization with overlap
     ethr =  9.20E-06,  avg # of iterations =  3.4

     negative rho (up, down):  2.469E-06 0.000E+00

     total cpu time spent up to now is      125.3 secs

     total energy              =   -2326.93895360 Ry
     estimated scf accuracy    <       0.00426641 Ry

     iteration #  6     ecut=    80.00 Ry     beta= 0.30
     Davidson diagonalization with overlap
     ethr =  4.64E-06,  avg # of iterations =  5.8

     negative rho (up, down):  6.605E-07 0.000E+00

     total cpu time spent up to now is      146.0 secs

     total energy              =   -2326.93878013 Ry
     estimated scf accuracy    <       0.00219818 Ry

     iteration #  7     ecut=    80.00 Ry     beta= 0.30
     Davidson diagonalization with overlap
     ethr =  2.39E-06,  avg # of iterations =  5.2

     negative rho (up, down):  1.670E-04 0.000E+00

     total cpu time spent up to now is      164.6 secs

     total energy              =   -2326.93860861 Ry
     estimated scf accuracy    <       0.00179538 Ry

     iteration #  8     ecut=    80.00 Ry     beta= 0.30
     Davidson diagonalization with overlap
     c_bands:  1 eigenvalues not converged
     ethr =  1.95E-06,  avg # of iterations =  7.0

     negative rho (up, down):  9.051E-04 0.000E+00

     total cpu time spent up to now is      184.0 secs

     total energy              =   -2326.93862081 Ry
     estimated scf accuracy    <       0.00075862 Ry

     iteration #  9     ecut=    80.00 Ry     beta= 0.30
     Davidson diagonalization with overlap
     ethr =  8.25E-07,  avg # of iterations =  2.5

     negative rho (up, down):  2.427E-03 0.000E+00

     total cpu time spent up to now is      201.1 secs

     total energy              =   -2326.93868130 Ry
     estimated scf accuracy    <       0.00055507 Ry

     iteration # 10     ecut=    80.00 Ry     beta= 0.30
     Davidson diagonalization with overlap
     ethr =  6.03E-07,  avg # of iterations =  6.9

     negative rho (up, down):  6.001E-03 0.000E+00

     total cpu time spent up to now is      221.1 secs

     total energy              =   -2326.93861032 Ry
     estimated scf accuracy    <       0.00041845 Ry

     iteration # 11     ecut=    80.00 Ry     beta= 0.30
     Davidson diagonalization with overlap
     ethr =  4.55E-07,  avg # of iterations =  4.4

     negative rho (up, down):  6.835E-03 0.000E+00

     total cpu time spent up to now is      239.1 secs

     total energy              =   -2326.93853264 Ry
     estimated scf accuracy    <       0.00031648 Ry

     iteration # 12     ecut=    80.00 Ry     beta= 0.30
     Davidson diagonalization with overlap
     ethr =  3.44E-07,  avg # of iterations =  4.5

     negative rho (up, down):  5.770E-03 0.000E+00

     total cpu time spent up to now is      256.6 secs

     total energy              =   -2326.93851311 Ry
     estimated scf accuracy    <       0.00022622 Ry

     iteration # 13     ecut=    80.00 Ry     beta= 0.30
     Davidson diagonalization with overlap
     ethr =  2.46E-07,  avg # of iterations =  4.2

     negative rho (up, down):  4.449E-03 0.000E+00

     total cpu time spent up to now is      273.9 secs

     total energy              =   -2326.93846463 Ry
     estimated scf accuracy    <       0.00017906 Ry

     iteration # 14     ecut=    80.00 Ry     beta= 0.30
     Davidson diagonalization with overlap
     c_bands:  1 eigenvalues not converged
     c_bands:  1 eigenvalues not converged
     c_bands:  1 eigenvalues not converged
     c_bands:  1 eigenvalues not converged
     ethr =  1.95E-07,  avg # of iterations =  7.2

     negative rho (up, down):  4.346E-03 0.000E+00

     total cpu time spent up to now is      292.3 secs

     total energy              =   -2326.93846415 Ry
     estimated scf accuracy    <       0.00011148 Ry

     iteration # 15     ecut=    80.00 Ry     beta= 0.30
     Davidson diagonalization with overlap
     ethr =  1.21E-07,  avg # of iterations =  5.4

     negative rho (up, down):  3.680E-03 0.000E+00

     total cpu time spent up to now is      311.2 secs

     total energy              =   -2326.93848285 Ry
     estimated scf accuracy    <       0.00005803 Ry

     iteration # 16     ecut=    80.00 Ry     beta= 0.30
     Davidson diagonalization with overlap
     ethr =  6.31E-08,  avg # of iterations =  3.7

     negative rho (up, down):  3.118E-03 0.000E+00

     total cpu time spent up to now is      330.1 secs

     total energy              =   -2326.93850945 Ry
     estimated scf accuracy    <       0.00002302 Ry

     iteration # 17     ecut=    80.00 Ry     beta= 0.30
     Davidson diagonalization with overlap
     ethr =  2.50E-08,  avg # of iterations =  3.9

     negative rho (up, down):  1.251E-03 0.000E+00

     total cpu time spent up to now is      347.4 secs

     total energy              =   -2326.93854742 Ry
     estimated scf accuracy    <       0.00001489 Ry

     iteration # 18     ecut=    80.00 Ry     beta= 0.30
     Davidson diagonalization with overlap
     ethr =  1.62E-08,  avg # of iterations =  6.3

     negative rho (up, down):  8.648E-04 0.000E+00

     total cpu time spent up to now is      368.5 secs

     total energy              =   -2326.93855155 Ry
     estimated scf accuracy    <       0.00000314 Ry

     iteration # 19     ecut=    80.00 Ry     beta= 0.30
     Davidson diagonalization with overlap
     ethr =  3.42E-09,  avg # of iterations =  2.0

     negative rho (up, down):  3.200E-04 0.000E+00

     total cpu time spent up to now is      387.0 secs

     total energy              =   -2326.93855437 Ry
     estimated scf accuracy    <       0.00000203 Ry

     iteration # 20     ecut=    80.00 Ry     beta= 0.30
     Davidson diagonalization with overlap
     ethr =  2.20E-09,  avg # of iterations =  3.8

     negative rho (up, down):  2.411E-04 0.000E+00

     total cpu time spent up to now is      406.3 secs

     total energy              =   -2326.93855543 Ry
     estimated scf accuracy    <       0.00000069 Ry

     iteration # 21     ecut=    80.00 Ry     beta= 0.30
     Davidson diagonalization with overlap
     ethr =  7.51E-10,  avg # of iterations =  1.9

     negative rho (up, down):  2.625E-04 0.000E+00

     total cpu time spent up to now is      423.1 secs

     total energy              =   -2326.93855508 Ry
     estimated scf accuracy    <       0.00000043 Ry

     iteration # 22     ecut=    80.00 Ry     beta= 0.30
     Davidson diagonalization with overlap
     ethr =  4.65E-10,  avg # of iterations =  3.9

     negative rho (up, down):  2.447E-04 0.000E+00

     total cpu time spent up to now is      441.6 secs

     total energy              =   -2326.93855468 Ry
     estimated scf accuracy    <       0.00000012 Ry

     iteration # 23     ecut=    80.00 Ry     beta= 0.30
     Davidson diagonalization with overlap
     ethr =  1.33E-10,  avg # of iterations =  2.1

     negative rho (up, down):  2.265E-04 0.000E+00

     total cpu time spent up to now is      459.8 secs

     total energy              =   -2326.93855420 Ry
     estimated scf accuracy    <       0.00000004 Ry

     iteration # 24     ecut=    80.00 Ry     beta= 0.30
     Davidson diagonalization with overlap
     ethr =  4.38E-11,  avg # of iterations =  2.8

     negative rho (up, down):  2.292E-04 0.000E+00

     total cpu time spent up to now is      479.3 secs

     End of self-consistent calculation

          k = 0.0000 0.0000 0.0000 ( 37787 PWs)   bands (ev):

   -61.8998 -61.8872 -48.3114 -48.3114 -48.3090 -48.3090 -48.2977 -48.2977
   -48.2893 -48.2893 -48.2711 -48.2711 -48.2625 -48.2625 -48.2600 -48.2600
   -48.2543 -48.2440 -48.2434 -48.2431 -48.2431 -48.2242 -36.0183 -36.0119
   -35.9035 -35.9035 -35.8870 -35.8870 -15.3793 -15.2528 -14.5721 -14.4075
    -6.7318  -6.2396  -3.8425  -3.3720  -3.3720  -3.3493  -3.3493  -2.8328
    -1.7511  -1.1619  -1.0718  -1.0718  -1.0560  -1.0560   0.1884   0.1884
     0.2450   0.2450   2.8967   2.8967   2.9739   2.9739   3.4398

          k = 0.0000 0.0722 0.0000 ( 37755 PWs)   bands (ev):

   -61.8988 -61.8863 -48.3114 -48.3112 -48.3090 -48.3088 -48.2976 -48.2975
   -48.2893 -48.2891 -48.2712 -48.2711 -48.2625 -48.2625 -48.2601 -48.2600
   -48.2542 -48.2439 -48.2433 -48.2432 -48.2431 -48.2241 -36.0161 -36.0097
   -35.9141 -35.9059 -35.8976 -35.8894 -15.3225 -15.1963 -14.5410 -14.3790
    -6.6556  -6.1633  -4.1105  -3.6699  -3.3404  -3.3173  -3.1483  -2.6136
    -1.7644  -1.3800  -1.2633  -1.2214  -1.2027  -1.1308   0.1124   0.1582
     0.3019   0.3594   2.5933   2.6622   2.8422   2.9312   3.5487

          k = 0.0000 0.1443 0.0000 ( 37697 PWs)   bands (ev):

   -61.8960 -61.8835 -48.3114 -48.3107 -48.3089 -48.3082 -48.2976 -48.2969
   -48.2892 -48.2885 -48.2713 -48.2712 -48.2627 -48.2626 -48.2602 -48.2601
   -48.2539 -48.2437 -48.2433 -48.2432 -48.2430 -48.2238 -36.0097 -36.0033
   -35.9443 -35.9277 -35.9129 -35.8964 -15.1559 -15.0308 -14.4501 -14.2958
    -6.4352  -5.9440  -4.5279  -4.1441  -3.2665  -3.2421  -2.9363  -2.4988
    -2.1170  -2.0203  -1.5631  -1.5137  -1.4882  -1.2004  -0.0401   0.1420
     0.4892   0.5549   2.0224   2.1094   2.7323   2.8420   3.8120

          k = 0.0000 0.2165 0.0000 ( 37653 PWs)   bands (ev):

   -61.8919 -61.8794 -48.3113 -48.3099 -48.3089 -48.3074 -48.2976 -48.2961
   -48.2892 -48.2877 -48.2716 -48.2713 -48.2629 -48.2626 -48.2605 -48.2602
   -48.2535 -48.2436 -48.2433 -48.2432 -48.2427 -48.2235 -36.0005 -35.9939
   -35.9887 -35.9724 -35.9232 -35.9067 -14.8923 -14.7696 -14.3057 -14.1643
    -6.1043  -5.6215  -4.9072  -4.5753  -3.2956  -3.2513  -3.2177  -3.1901
    -2.6300  -2.2468  -1.7420  -1.7091  -1.6501  -1.3908  -0.1040   0.1478
     0.5910   0.6672   1.6118   1.9017   2.6577   2.7859   4.1900

          k = 0.0000 0.2887 0.0000 ( 37721 PWs)   bands (ev):

   -61.8871 -61.8746 -48.3113 -48.3090 -48.3089 -48.3065 -48.2976 -48.2952
   -48.2892 -48.2869 -48.2719 -48.2714 -48.2632 -48.2627 -48.2608 -48.2603
   -48.2531 -48.2439 -48.2434 -48.2428 -48.2422 -48.2230 -36.0418 -36.0253
   -35.9885 -35.9821 -35.9354 -35.9189 -14.5573 -14.4399 -14.1169 -13.9930
    -5.7881  -5.3675  -5.1128  -4.8020  -4.3200  -4.2611  -3.2758  -3.2437
    -2.7871  -2.4826  -1.8725  -1.7924  -1.7486  -1.7224  -0.0614   0.2391
     0.5970   0.6744   1.6522   2.1444   2.6494   2.7961   4.6689

          k = 0.0000 0.3608 0.0000 ( 37749 PWs)   bands (ev):

   -61.8822 -61.8697 -48.3113 -48.3089 -48.3081 -48.3056 -48.2976 -48.2943
   -48.2892 -48.2860 -48.2722 -48.2715 -48.2635 -48.2629 -48.2611 -48.2604
   -48.2526 -48.2442 -48.2435 -48.2423 -48.2418 -48.2226 -36.0938 -36.0772
   -35.9772 -35.9709 -35.9476 -35.9311 -14.2035 -14.0975 -13.8855 -13.7819
    -5.7808  -5.5540  -5.2861  -5.2198  -4.8885  -4.5577  -3.4272  -3.3912
    -3.1124  -2.8767  -2.1380  -2.0017  -1.6991  -1.6367   0.1820   0.4826
     0.5843   0.6474   2.0252   2.6022   2.6753   2.8419   5.1368

          k = 0.0000 0.4330 0.0000 ( 37785 PWs)   bands (ev):

   -61.8781 -61.8656 -48.3113 -48.3088 -48.3073 -48.3049 -48.2976 -48.2936
   -48.2892 -48.2852 -48.2725 -48.2716 -48.2637 -48.2629 -48.2613 -48.2605
   -48.2522 -48.2444 -48.2436 -48.2420 -48.2414 -48.2222 -36.1376 -36.1209
   -35.9675 -35.9612 -35.9579 -35.9414 -13.9241 -13.8406 -13.6004 -13.5146
    -6.2579  -6.1889  -5.7428  -5.4955  -4.6505  -4.4710  -3.5882  -3.5497
    -3.3875  -3.1025  -2.3041  -2.1915  -1.5811  -1.4941   0.5608   0.6152
     0.6540   0.8087   2.5189   2.7019   2.8863   3.0521   4.8194

          k = 0.0000 0.5052 0.0000 ( 37822 PWs)   bands (ev):

   -61.8753 -61.8628 -48.3113 -48.3088 -48.3068 -48.3044 -48.2976 -48.2931
   -48.2892 -48.2847 -48.2726 -48.2717 -48.2639 -48.2630 -48.2615 -48.2605
   -48.2520 -48.2446 -48.2436 -48.2417 -48.2411 -48.2219 -36.1667 -36.1500
   -35.9648 -35.9611 -35.9548 -35.9482 -13.7622 -13.7034 -13.3315 -13.2660
    -6.8120  -6.7464  -5.7367  -5.5479  -4.8002  -4.6403  -3.7012  -3.6613
    -3.2970  -2.9811  -2.4193  -2.3366  -1.5070  -1.3992   0.6766   0.6978
     0.9353   1.0989   2.7174   2.9140   2.9715   3.3460   4.4343

          k = 0.0000-0.5774 0.0000 ( 37832 PWs)   bands (ev):

   -61.8744 -61.8619 -48.3114 -48.3088 -48.3067 -48.3042 -48.2976 -48.2929
   -48.2892 -48.2845 -48.2727 -48.2717 -48.2639 -48.2630 -48.2616 -48.2605
   -48.2519 -48.2446 -48.2437 -48.2416 -48.2410 -48.2218 -36.1769 -36.1601
   -35.9672 -35.9588 -35.9525 -35.9506 -13.7075 -13.6605 -13.2193 -13.1668
    -7.0138  -6.9554  -5.6652  -5.5747  -4.9303  -4.7757  -3.7411  -3.7008
    -3.1565  -2.8827  -2.4799  -2.4076  -1.4841  -1.3685   0.7064   0.7257
     1.1109   1.2093   2.7222   2.9231   3.2087   3.4625   4.1659

          k = 0.0625 0.1083 0.0000 ( 37709 PWs)   bands (ev):

   -61.8969 -61.8844 -48.3114 -48.3109 -48.3089 -48.3084 -48.2976 -48.2971
   -48.2892 -48.2887 -48.2713 -48.2712 -48.2626 -48.2625 -48.2602 -48.2601
   -48.2540 -48.2437 -48.2433 -48.2432 -48.2431 -48.2239 -36.0117 -36.0054
   -35.9342 -35.9177 -35.9109 -35.8944 -15.2107 -15.0852 -14.4800 -14.3232
    -6.5069  -6.0150  -4.4146  -4.0146  -3.2945  -3.2716  -2.9710  -2.4666
    -1.9204  -1.8289  -1.5252  -1.4979  -1.4437  -1.1277   0.0298   0.1776
     0.3941   0.4491   2.2706   2.2869   2.7100   2.7845   3.7312

          k = 0.0625 0.1804 0.0000 ( 37703 PWs)   bands (ev):

   -61.8935 -61.8810 -48.3113 -48.3102 -48.3089 -48.3078 -48.2976 -48.2965
   -48.2892 -48.2881 -48.2715 -48.2713 -48.2628 -48.2626 -48.2604 -48.2601
   -48.2537 -48.2435 -48.2434 -48.2432 -48.2428 -48.2236 -36.0038 -35.9974
   -35.9708 -35.9543 -35.9204 -35.9039 -14.9952 -14.8714 -14.3625 -14.2160
    -6.2270  -5.7381  -4.7803  -4.4298  -3.2925  -3.2670  -2.9490  -2.7392
    -2.5100  -2.3622  -1.8059  -1.7199  -1.5075  -1.1871   0.0055   0.1967
     0.4228   0.4601   1.9169   2.0698   2.5265   2.6242   4.0470

          k = 0.0625 0.2526 0.0000 ( 37702 PWs)   bands (ev):

   -61.8890 -61.8765 -48.3113 -48.3094 -48.3088 -48.3070 -48.2975 -48.2957
   -48.2892 -48.2873 -48.2718 -48.2714 -48.2631 -48.2627 -48.2607 -48.2602
   -48.2533 -48.2437 -48.2434 -48.2430 -48.2424 -48.2232 -36.0186 -36.0021
   -35.9931 -35.9867 -35.9328 -35.9163 -14.6940 -14.5739 -14.1968 -14.0656
    -5.8760  -5.4078  -5.0736  -4.7643  -3.8722  -3.8242  -3.2475  -3.2135
    -2.7160  -2.5013  -2.0072  -1.9331  -1.5213  -1.3209  -0.0786   0.1187
     0.4875   0.5892   1.7683   2.0437   2.5184   2.6148   4.4757

          k = 0.0625 0.3248 0.0000 ( 37734 PWs)   bands (ev):

   -61.8842 -61.8716 -48.3113 -48.3088 -48.3085 -48.3061 -48.2975 -48.2948
   -48.2891 -48.2864 -48.2721 -48.2715 -48.2634 -48.2628 -48.2609 -48.2604
   -48.2528 -48.2440 -48.2435 -48.2425 -48.2419 -48.2227 -36.0695 -36.0529
   -35.9819 -35.9755 -35.9462 -35.9297 -14.3428 -14.2304 -13.9910 -13.8794
    -5.6999  -5.3612  -5.0646  -4.8784  -4.7967  -4.6540  -3.4861  -3.4531
    -2.8145  -2.6605  -2.2959  -2.2702  -1.4878  -1.3749  -0.0561   0.1782
     0.6344   0.7206   1.8638   2.1724   2.6422   2.7649   4.9915

          k = 0.0625 0.3969 0.0000 ( 37770 PWs)   bands (ev):

   -61.8797 -61.8672 -48.3112 -48.3087 -48.3077 -48.3053 -48.2975 -48.2940
   -48.2891 -48.2856 -48.2724 -48.2716 -48.2636 -48.2629 -48.2612 -48.2605
   -48.2524 -48.2443 -48.2436 -48.2421 -48.2415 -48.2223 -36.1163 -36.0996
   -35.9714 -35.9651 -35.9585 -35.9420 -14.0166 -13.9210 -13.7371 -13.6449
    -5.8849  -5.8306  -5.6120  -5.4082  -4.7143  -4.4411  -3.7433  -3.6836
    -3.0608  -2.9353  -2.5222  -2.4784  -1.3965  -1.3452   0.1506   0.3418
     0.7877   0.8742   2.1478   2.3432   2.7823   3.0427   5.1839

          k = 0.0625 0.4691 0.0000 ( 37798 PWs)   bands (ev):

   -61.8762 -61.8637 -48.3112 -48.3087 -48.3071 -48.3047 -48.2974 -48.2934
   -48.2890 -48.2850 -48.2726 -48.2717 -48.2638 -48.2630 -48.2614 -48.2605
   -48.2521 -48.2445 -48.2436 -48.2418 -48.2412 -48.2220 -36.1519 -36.1352
   -35.9683 -35.9630 -35.9571 -35.9514 -13.8005 -13.7309 -13.4467 -13.3725
    -6.5269  -6.4584  -5.7390  -5.5194  -4.6523  -4.5062  -3.8524  -3.7759
    -3.2078  -3.0166  -2.6243  -2.5913  -1.3454  -1.3243   0.4282   0.5405
     0.9584   1.0577   2.3810   2.5234   2.9572   3.2891   4.8200

          k = 0.0625 0.5413 0.0000 ( 37791 PWs)   bands (ev):

   -61.8744 -61.8619 -48.3112 -48.3087 -48.3068 -48.3043 -48.2974 -48.2930
   -48.2890 -48.2846 -48.2727 -48.2717 -48.2639 -48.2630 -48.2615 -48.2606
   -48.2519 -48.2446 -48.2437 -48.2416 -48.2410 -48.2218 -36.1710 -36.1543
   -35.9732 -35.9588 -35.9567 -35.9525 -13.6943 -13.6450 -13.2437 -13.1891
    -6.9097  -6.8494  -5.6792  -5.5540  -4.8562  -4.6974  -3.8412  -3.8198
    -3.1211  -2.9070  -2.6829  -2.6777  -1.3542  -1.3196   0.6466   0.6881
     1.0833   1.1759   2.4651   2.6406   3.1681   3.4347   4.4437

          k = 0.1250 0.2165 0.0000 ( 37731 PWs)   bands (ev):

   -61.8897 -61.8772 -48.3112 -48.3096 -48.3088 -48.3072 -48.2975 -48.2959
   -48.2891 -48.2875 -48.2717 -48.2714 -48.2630 -48.2627 -48.2606 -48.2602
   -48.2533 -48.2437 -48.2434 -48.2430 -48.2425 -48.2233 -36.0087 -35.9950
   -35.9921 -35.9886 -35.9334 -35.9168 -14.7409 -14.6200 -14.2242 -14.0906
    -5.9106  -5.4282  -5.0447  -4.7335  -3.7242  -3.6843  -3.1177  -2.9242
    -2.8862  -2.8476  -2.0229  -1.8720  -1.4275  -1.1470   0.0215   0.0670
     0.2544   0.5091   2.0831   2.1536   2.2134   2.3938   4.4129

          k = 0.1250 0.2887 0.0000 ( 37723 PWs)   bands (ev):

   -61.8852 -61.8727 -48.3111 -48.3089 -48.3086 -48.3064 -48.2973 -48.2951
   -48.2890 -48.2867 -48.2720 -48.2715 -48.2633 -48.2628 -48.2609 -48.2604
   -48.2529 -48.2439 -48.2435 -48.2426 -48.2420 -48.2228 -36.0523 -36.0357
   -35.9846 -35.9782 -35.9493 -35.9328 -14.4170 -14.3015 -14.0455 -13.9297
    -5.6210  -5.2145  -5.1547  -4.8361  -4.4942  -4.4506  -3.5148  -3.4230
    -2.9826  -2.9362  -2.2502  -2.1831  -1.3024  -1.0845  -0.2349  -0.0563
     0.5427   0.7524   1.8543   1.8748   2.4279   2.7287   4.8861

          k = 0.1250 0.3608 0.0000 ( 37761 PWs)   bands (ev):

   -61.8807 -61.8682 -48.3110 -48.3085 -48.3081 -48.3057 -48.2972 -48.2944
   -48.2888 -48.2860 -48.2723 -48.2716 -48.2635 -48.2629 -48.2611 -48.2605
   -48.2525 -48.2442 -48.2436 -48.2422 -48.2416 -48.2224 -36.0952 -36.0786
   -35.9748 -35.9680 -35.9650 -35.9490 -14.0728 -13.9684 -13.8307 -13.7365
    -5.6585  -5.4375  -5.2898  -5.2517  -4.8403  -4.4898  -3.8901  -3.8156
    -3.0930  -3.0298  -2.6765  -2.6125  -1.1511  -1.0012  -0.2242   0.0037
     0.8403   0.9693   1.7482   1.8296   2.7058   3.0594   5.3942

          k = 0.1250 0.4330 0.0000 ( 37768 PWs)   bands (ev):

   -61.8769 -61.8644 -48.3109 -48.3084 -48.3075 -48.3051 -48.2971 -48.2938
   -48.2887 -48.2854 -48.2725 -48.2717 -48.2637 -48.2630 -48.2613 -48.2606
   -48.2521 -48.2444 -48.2437 -48.2419 -48.2413 -48.2221 -36.1313 -36.1146
   -35.9804 -35.9645 -35.9644 -35.9577 -13.8058 -13.7249 -13.5629 -13.4855
    -6.1158  -6.0572  -5.6718  -5.4509  -4.5283  -4.3522  -4.1345  -3.9950
    -3.2125  -3.1402  -3.0102  -2.9614  -1.0890  -1.0030   0.0219   0.2253
     1.0498   1.1187   1.8272   1.9577   2.9593   3.2897   5.3737

          k = 0.1250 0.5052 0.0000 ( 37794 PWs)   bands (ev):

   -61.8744 -61.8619 -48.3108 -48.3083 -48.3071 -48.3047 -48.2970 -48.2934
   -48.2886 -48.2850 -48.2726 -48.2718 -48.2639 -48.2631 -48.2615 -48.2606
   -48.2519 -48.2445 -48.2437 -48.2416 -48.2410 -48.2218 -36.1552 -36.1385
   -35.9895 -35.9730 -35.9588 -35.9525 -13.6557 -13.6005 -13.3086 -13.2502
    -6.6185  -6.5573  -5.6717  -5.5175  -4.6659  -4.5192  -4.0973  -3.9864
    -3.2990  -3.2203  -3.1021  -3.0009  -1.1320  -1.0722   0.3862   0.5213
     1.1048   1.1556   1.9818   2.1152   3.1379   3.3827   5.0497

          k = 0.1250 0.5774 0.0000 ( 37780 PWs)   bands (ev):

   -61.8735 -61.8610 -48.3108 -48.3083 -48.3070 -48.3045 -48.2970 -48.2932
   -48.2886 -48.2848 -48.2727 -48.2718 -48.2639 -48.2631 -48.2615 -48.2606
   -48.2518 -48.2446 -48.2438 -48.2415 -48.2410 -48.2218 -36.1636 -36.1468
   -35.9928 -35.9762 -35.9568 -35.9505 -13.6045 -13.5614 -13.2038 -13.1583
    -6.8009  -6.7420  -5.6264  -5.5521  -4.7797  -4.6215  -4.0735  -4.0055
    -3.3273  -3.2489  -3.0629  -2.9634  -1.1677  -1.1122   0.6369   0.6668
     1.0446   1.1177   2.0715   2.1782   3.2020   3.4132   4.8124

          k = 0.1875 0.3248 0.0000 ( 37725 PWs)   bands (ev):

   -61.8811 -61.8686 -48.3108 -48.3084 -48.3083 -48.3059 -48.2971 -48.2946
   -48.2887 -48.2862 -48.2722 -48.2716 -48.2635 -48.2630 -48.2611 -48.2605
   -48.2525 -48.2441 -48.2436 -48.2422 -48.2417 -48.2225 -36.0857 -36.0690
   -35.9770 -35.9694 -35.9685 -35.9533 -14.0915 -13.9836 -13.8640 -13.7696
    -5.5676  -5.2694  -5.1292  -5.1069  -4.9057  -4.5592  -3.8993  -3.8117
    -3.3623  -3.3226  -2.5487  -2.5084  -1.0204  -0.8175  -0.3902  -0.1643
     0.8244   0.9972   1.5799   1.6126   2.6874   3.0620   5.3827

          k = 0.1875 0.3969 0.0000 ( 37753 PWs)   bands (ev):

   -61.8773 -61.8648 -48.3106 -48.3081 -48.3078 -48.3054 -48.2968 -48.2941
   -48.2884 -48.2857 -48.2724 -48.2717 -48.2637 -48.2631 -48.2613 -48.2606
   -48.2522 -48.2443 -48.2437 -48.2419 -48.2413 -48.2221 -36.1145 -36.0978
   -35.9927 -35.9764 -35.9653 -35.9588 -13.7845 -13.6922 -13.6489 -13.5793
    -5.7464  -5.7137  -5.5707  -5.3786  -4.5563  -4.2768  -4.2307  -4.1033
    -3.6987  -3.6376  -2.9658  -2.8839  -0.7945  -0.6515  -0.3226  -0.1053
     1.0609   1.1623   1.4916   1.5630   2.9711   3.2959   5.7665

          k = 0.1875 0.4691 0.0000 ( 37759 PWs)   bands (ev):

   -61.8744 -61.8619 -48.3103 -48.3079 -48.3075 -48.3051 -48.2966 -48.2938
   -48.2882 -48.2854 -48.2725 -48.2718 -48.2638 -48.2632 -48.2614 -48.2607
   -48.2519 -48.2445 -48.2438 -48.2416 -48.2410 -48.2218 -36.1354 -36.1187
   -36.0098 -35.9933 -35.9588 -35.9526 -13.5962 -13.5333 -13.3930 -13.3342
    -6.2263  -6.1776  -5.6209  -5.4717  -4.5321  -4.4054  -4.2153  -4.0356
    -3.9427  -3.8381  -3.2070  -3.1685  -0.8153  -0.7075   0.0257   0.1826
     1.1252   1.1690   1.5993   1.7454   3.1517   3.3436   5.6233

          k = 0.1875 0.5413 0.0000 ( 37793 PWs)   bands (ev):

   -61.8728 -61.8603 -48.3102 -48.3077 -48.3073 -48.3049 -48.2964 -48.2936
   -48.2880 -48.2852 -48.2726 -48.2719 -48.2639 -48.2632 -48.2615 -48.2608
   -48.2518 -48.2446 -48.2439 -48.2415 -48.2409 -48.2217 -36.1463 -36.1296
   -36.0195 -36.0029 -35.9552 -35.9490 -13.5038 -13.4626 -13.2176 -13.1768
    -6.5076  -6.4491  -5.6123  -5.5358  -4.6317  -4.4736  -4.2331  -4.1330
    -4.0178  -3.9113  -3.2242  -3.1968  -0.8951  -0.7943   0.4248   0.5005
     0.9770   1.0222   1.8168   1.9141   3.1522   3.2985   5.4012

          k = 0.2500 0.4330 0.0000 ( 37711 PWs)   bands (ev):

   -61.8744 -61.8619 -48.3101 -48.3078 -48.3075 -48.3053 -48.2963 -48.2940
   -48.2879 -48.2856 -48.2725 -48.2719 -48.2638 -48.2632 -48.2614 -48.2607
   -48.2519 -48.2445 -48.2438 -48.2416 -48.2410 -48.2218 -36.1249 -36.1083
   -36.0204 -36.0039 -35.9589 -35.9526 -13.5477 -13.4780 -13.4485 -13.3996
    -5.9995  -5.9696  -5.5761  -5.4443  -4.5427  -4.3975  -4.2656  -4.2439
    -4.1355  -3.9166  -3.3525  -3.2248  -0.4976  -0.3553  -0.3042  -0.1728
     1.1032   1.1743   1.4747   1.6423   3.1672   3.3268   5.8598

          k = 0.2500 0.5052 0.0000 ( 37776 PWs)   bands (ev):

   -61.8724 -61.8599 -48.3097 -48.3078 -48.3071 -48.3053 -48.2959 -48.2941
   -48.2875 -48.2857 -48.2726 -48.2720 -48.2639 -48.2633 -48.2614 -48.2608
   -48.2517 -48.2445 -48.2439 -48.2415 -48.2409 -48.2217 -36.1275 -36.1108
   -36.0435 -36.0269 -35.9544 -35.9482 -13.4124 -13.3695 -13.2670 -13.2293
    -6.1556  -6.1054  -5.5908  -5.5257  -4.7318  -4.6780  -4.4792  -4.3446
    -4.0360  -3.9234  -3.5660  -3.4618  -0.5192  -0.3964   0.0149   0.1036
     0.9504   0.9732   1.7065   1.9580   3.0935   3.2003   5.6712

          k = 0.2500 0.5774 0.0000 ( 37791 PWs)   bands (ev):

   -61.8717 -61.8592 -48.3095 -48.3079 -48.3069 -48.3054 -48.2957 -48.2941
   -48.2873 -48.2857 -48.2726 -48.2720 -48.2639 -48.2633 -48.2615 -48.2609
   -48.2517 -48.2446 -48.2439 -48.2414 -48.2408 -48.2216 -36.1269 -36.1102
   -36.0531 -36.0364 -35.9529 -35.9466 -13.3648 -13.3356 -13.1931 -13.1668
    -6.2031  -6.1424  -5.6103  -5.5651  -4.8675  -4.8301  -4.3815  -4.2229
    -4.1899  -4.0817  -3.5583  -3.4761  -0.5614  -0.4452   0.2612   0.3623
     0.7373   0.7755   1.9439   2.1086   2.9763   3.0673   5.6052

          k = 0.3125 0.5413 0.0000 ( 37789 PWs)   bands (ev):

   -61.8714 -61.8589 -48.3091 -48.3082 -48.3065 -48.3058 -48.2953 -48.2945
   -48.2869 -48.2861 -48.2726 -48.2721 -48.2639 -48.2633 -48.2614 -48.2609
   -48.2517 -48.2446 -48.2440 -48.2414 -48.2408 -48.2216 -36.1094 -36.0927
   -36.0756 -36.0589 -35.9520 -35.9458 -13.2831 -13.2600 -13.2167 -13.1960
    -5.9058  -5.8370  -5.6085  -5.5811  -5.3108  -5.2514  -4.3698  -4.1878
    -3.9794  -3.9036  -3.8910  -3.7397  -0.2480  -0.1156  -0.0241   0.0969
     0.6515   0.6646   2.0982   2.3718   2.7102   2.9449   5.5142

     the Fermi energy is    -0.3137 ev

!    total energy              =   -2326.93855420 Ry
     total all-electron energy =    -35628.686383 Ry
     estimated scf accuracy    <          9.3E-09 Ry
     smearing contrib. (-TS)   =       0.00102460 Ry
     internal energy E=F+TS    =   -2326.93957880 Ry

     The total energy is F=E-TS. E is the sum of the following terms:
     one-electron contribution =  -29095.58600194 Ry
     hartree contribution      =   14535.99765161 Ry
     xc contribution           =    -152.45685810 Ry
     ewald contribution        =   13395.62022407 Ry
     one-center paw contrib.   =   -1010.51459444 Ry

     convergence has been achieved in  24 iterations

     Writing all to output data dir ./tmp/cleave_001/mose2_cleave_001.save/ :
     XML data file, charge density, pseudopotentials, collected wavefunctions

     init_run     :     11.59s CPU     11.78s WALL (       1 calls)
     electrons    :    459.83s CPU    467.40s WALL (       1 calls)

     Called by init_run:
     wfcinit      :      5.25s CPU      5.28s WALL (       1 calls)
     potinit      :      5.70s CPU      5.74s WALL (       1 calls)
     hinit0       :      0.05s CPU      0.06s WALL (       1 calls)

     Called by electrons:
     c_bands      :    383.56s CPU    385.06s WALL (      25 calls)
     sum_band     :     50.56s CPU     53.25s WALL (      25 calls)
     v_of_rho     :     15.03s CPU     15.90s WALL (      25 calls)
     newd         :      8.93s CPU     11.52s WALL (      25 calls)
     PAW_pot      :      1.52s CPU      1.56s WALL (      25 calls)
     mix_rho      :      6.05s CPU      6.07s WALL (      25 calls)
     vdW_kernel   :      5.25s CPU      5.26s WALL (       1 calls)

     Called by c_bands:
     init_us_2    :      3.74s CPU      3.75s WALL (    1530 calls)
     cegterg      :    376.69s CPU    378.12s WALL (     750 calls)

     Called by *egterg:
     cdiaghg      :     13.24s CPU     13.25s WALL (    3895 calls)
     h_psi        :    170.66s CPU    171.30s WALL (    3955 calls)
     s_psi        :     38.48s CPU     38.51s WALL (    3955 calls)
     g_psi        :      0.73s CPU      0.73s WALL (    3175 calls)

     Called by h_psi:
     h_psi:calbec :     48.72s CPU     48.93s WALL (    3955 calls)
     vloc_psi     :     71.98s CPU     72.36s WALL (    3955 calls)
                                        0.00s GPU  (    3955 calls)
     add_vuspsi   :     49.20s CPU     49.24s WALL (    3955 calls)

     General routines
     calbec       :     69.91s CPU     70.21s WALL (    4705 calls)
     fft          :      5.07s CPU      5.13s WALL (    1574 calls)
     ffts         :      2.08s CPU      2.08s WALL (    2879 calls)
     fftw         :     76.60s CPU     77.03s WALL (  223966 calls)
     interpolate  :      0.11s CPU      0.11s WALL (      25 calls)

     Parallel routines

     PWSCF        :   7m52.07s CPU   8m 0.08s WALL


   This run was terminated on:   9: 1:23  20Jun2026            

=------------------------------------------------------------------------------=
   JOB DONE.
=------------------------------------------------------------------------------=
Note: The following floating-point exceptions are signalling: IEEE_UNDERFLOW_FLAG IEEE_DENORMAL
Note: The following floating-point exceptions are signalling: IEEE_UNDERFLOW_FLAG IEEE_DENORMAL
Note: The following floating-point exceptions are signalling: IEEE_UNDERFLOW_FLAG IEEE_DENORMAL
Note: The following floating-point exceptions are signalling: IEEE_UNDERFLOW_FLAG IEEE_DENORMAL
Note: The following floating-point exceptions are signalling: IEEE_UNDERFLOW_FLAG IEEE_DENORMAL
Note: The following floating-point exceptions are signalling: IEEE_UNDERFLOW_FLAG IEEE_DENORMAL
Note: The following floating-point exceptions are signalling: IEEE_UNDERFLOW_FLAG IEEE_DENORMAL
Note: The following floating-point exceptions are signalling: IEEE_UNDERFLOW_FLAG IEEE_DENORMAL
Note: The following floating-point exceptions are signalling: IEEE_UNDERFLOW_FLAG IEEE_DENORMAL
Note: The following floating-point exceptions are signalling: IEEE_UNDERFLOW_FLAG IEEE_DENORMAL
Note: The following floating-point exceptions are signalling: IEEE_UNDERFLOW_FLAG IEEE_DENORMAL
Note: The following floating-point exceptions are signalling: IEEE_UNDERFLOW_FLAG IEEE_DENORMAL
Note: The following floating-point exceptions are signalling: IEEE_UNDERFLOW_FLAG IEEE_DENORMAL
Note: The following floating-point exceptions are signalling: IEEE_UNDERFLOW_FLAG IEEE_DENORMAL
Note: The following floating-point exceptions are signalling: IEEE_UNDERFLOW_FLAG IEEE_DENORMAL
Note: The following floating-point exceptions are signalling: IEEE_UNDERFLOW_FLAG IEEE_DENORMAL
Note: The following floating-point exceptions are signalling: IEEE_UNDERFLOW_FLAG IEEE_DENORMAL
Note: The following floating-point exceptions are signalling: IEEE_UNDERFLOW_FLAG IEEE_DENORMAL
Note: The following floating-point exceptions are signalling: IEEE_UNDERFLOW_FLAG IEEE_DENORMAL
Note: The following floating-point exceptions are signalling: IEEE_UNDERFLOW_FLAG IEEE_DENORMAL
Note: The following floating-point exceptions are signalling: IEEE_UNDERFLOW_FLAG IEEE_DENORMAL
Note: The following floating-point exceptions are signalling: IEEE_UNDERFLOW_FLAG IEEE_DENORMAL
Note: The following floating-point exceptions are signalling: IEEE_UNDERFLOW_FLAG IEEE_DENORMAL
Note: The following floating-point exceptions are signalling: IEEE_UNDERFLOW_FLAG IEEE_DENORMAL
