
     Program PWSCF v.7.5 starts on 20Jun2026 at  9: 9:15 

     This program is part of the open-source Quantum ESPRESSO suite
     for quantum simulation of materials; please cite
         "P. Giannozzi et al., J. Phys.:Condens. Matter 21 395502 (2009);
         "P. Giannozzi et al., J. Phys.:Condens. Matter 29 465901 (2017);
         "P. Giannozzi et al., J. Chem. Phys. 152 154105 (2020);
          URL http://www.quantum-espresso.org", 
     in publications or presentations arising from this work. More details at
     http://www.quantum-espresso.org/quote

     Parallel version (MPI), running on    24 processors

     MPI processes distributed on     1 nodes
     6902 MiB available memory on the printing compute node when the environment starts

     Waiting for input...
     Reading input from standard input

     Current dimensions of program PWSCF are:
     Max number of different atomic species (ntypx) = 10
     Max number of k-points (npk) =  40000
     Max angular momentum in pseudopotentials (lmaxx) =  4
     file Mo.pbe-spn-kjpaw_psl.1.0.0.UPF: wavefunction(s)  4S 4D renormalized
     file Se.pbe-dn-kjpaw_psl.1.0.0.UPF: wavefunction(s)  4S 4P 3D renormalized

     IMPORTANT: XC functional enforced from input :
     Exchange-correlation= VDW-DF2-B86R
                           (   1   4  26   0   2   0   0)
     Any further DFT definition will be discarded
     Please, verify this is what you really want


     R & G space division:  proc/nbgrp/npool/nimage =      24
     Subspace diagonalization in iterative solution of the eigenvalue problem:
     a serial algorithm will be used


     Parallelization info
     --------------------
     sticks:   dense  smooth     PW     G-vecs:    dense   smooth      PW
     Min          69      35     10                35537    12585    1924
     Max          70      36     11                35620    12648    1981
     Sum        1675     847    241               853823   302525   46513

     Using Slab Decomposition



     bravais-lattice index     =            4
     lattice parameter (alat)  =       6.1794  a.u.
     unit-cell volume          =    3124.5879 (a.u.)^3
     number of atoms/cell      =            6
     number of atomic types    =            2
     number of electrons       =        92.00
     number of Kohn-Sham states=           55
     kinetic-energy cutoff     =      80.0000  Ry
     charge density cutoff     =     640.0000  Ry
     scf convergence threshold =      1.0E-08
     mixing beta               =       0.3000
     number of iterations used =            8  local-TF  mixing
     Exchange-correlation= VDW-DF2-B86R
                           (   1   4  26   0   2   0   0)

     celldm(1)=   6.179404  celldm(2)=   0.000000  celldm(3)=  15.290520
     celldm(4)=   0.000000  celldm(5)=   0.000000  celldm(6)=   0.000000

     crystal axes: (cart. coord. in units of alat)
               a(1) = (   1.000000   0.000000   0.000000 )  
               a(2) = (  -0.500000   0.866025   0.000000 )  
               a(3) = (   0.000000   0.000000  15.290520 )  

     reciprocal axes: (cart. coord. in units 2 pi/alat)
               b(1) = (  1.000000  0.577350 -0.000000 )  
               b(2) = (  0.000000  1.154701  0.000000 )  
               b(3) = (  0.000000 -0.000000  0.065400 )  


     PseudoPot. # 1 for Mo read from file:
     ./pseudo/Mo.pbe-spn-kjpaw_psl.1.0.0.UPF
     MD5 check sum: 4396e0c640fcce5c25f020efccf1ab12
     Pseudo is Projector augmented-wave + core cor, Zval = 14.0
     Generated using &quot;atomic&quot; code by A. Dal Corso  v.6.3
     Shape of augmentation charge: PSQ
     Using radial grid of 1229 points,  6 beta functions with: 
                l(1) =   0
                l(2) =   0
                l(3) =   1
                l(4) =   1
                l(5) =   2
                l(6) =   2
     Q(r) pseudized with 0 coefficients 


     PseudoPot. # 2 for Se read from file:
     ./pseudo/Se.pbe-dn-kjpaw_psl.1.0.0.UPF
     MD5 check sum: ac240dd2bae32a30e0bf3a38df9c8785
     Pseudo is Projector augmented-wave + core cor, Zval = 16.0
     Generated using &quot;atomic&quot; code by A. Dal Corso  v.6.3
     Shape of augmentation charge: PSQ
     Using radial grid of 1211 points,  6 beta functions with: 
                l(1) =   0
                l(2) =   0
                l(3) =   1
                l(4) =   1
                l(5) =   2
                l(6) =   2
     Q(r) pseudized with 0 coefficients 


     atomic species   valence    mass     pseudopotential
     Mo               14.00    95.96000     Mo( 1.00)
     Se               16.00    78.96000     Se( 1.00)

      6 Sym. Ops. (no inversion) found



   Cartesian axes

     site n.     atom                  positions (alat units)
         1        Se     tau(   1) = (  -0.0000005   0.5773506   6.1238532  )
         2        Mo     tau(   2) = (   0.0000000   0.0000000   6.6502752  )
         3        Se     tau(   3) = (   0.5000005   0.2886748   7.1775994  )
         4        Se     tau(   4) = (  -0.0000005   0.5773506   8.2958257  )
         5        Mo     tau(   5) = (   0.5000005   0.2886748   8.8230122  )
         6        Se     tau(   6) = (   0.0000000   0.0000000   9.3501529  )

     number of k points=    30  Methfessel-Paxton smearing, width (Ry)=  0.0200
                       cart. coord. in units 2pi/alat
        k(    1) = (   0.0000000   0.0000000   0.0000000), wk =   0.0078125
        k(    2) = (   0.0000000   0.0721688   0.0000000), wk =   0.0468750
        k(    3) = (   0.0000000   0.1443376   0.0000000), wk =   0.0468750
        k(    4) = (   0.0000000   0.2165064   0.0000000), wk =   0.0468750
        k(    5) = (   0.0000000   0.2886751   0.0000000), wk =   0.0468750
        k(    6) = (   0.0000000   0.3608439   0.0000000), wk =   0.0468750
        k(    7) = (   0.0000000   0.4330127   0.0000000), wk =   0.0468750
        k(    8) = (   0.0000000   0.5051815   0.0000000), wk =   0.0468750
        k(    9) = (   0.0000000  -0.5773503   0.0000000), wk =   0.0234375
        k(   10) = (   0.0625000   0.1082532   0.0000000), wk =   0.0468750
        k(   11) = (   0.0625000   0.1804220   0.0000000), wk =   0.0937500
        k(   12) = (   0.0625000   0.2525907   0.0000000), wk =   0.0937500
        k(   13) = (   0.0625000   0.3247595   0.0000000), wk =   0.0937500
        k(   14) = (   0.0625000   0.3969283   0.0000000), wk =   0.0937500
        k(   15) = (   0.0625000   0.4690971   0.0000000), wk =   0.0937500
        k(   16) = (   0.0625000   0.5412659   0.0000000), wk =   0.0937500
        k(   17) = (   0.1250000   0.2165064   0.0000000), wk =   0.0468750
        k(   18) = (   0.1250000   0.2886751   0.0000000), wk =   0.0937500
        k(   19) = (   0.1250000   0.3608439   0.0000000), wk =   0.0937500
        k(   20) = (   0.1250000   0.4330127   0.0000000), wk =   0.0937500
        k(   21) = (   0.1250000   0.5051815   0.0000000), wk =   0.0937500
        k(   22) = (   0.1250000   0.5773503   0.0000000), wk =   0.0468750
        k(   23) = (   0.1875000   0.3247595   0.0000000), wk =   0.0468750
        k(   24) = (   0.1875000   0.3969283   0.0000000), wk =   0.0937500
        k(   25) = (   0.1875000   0.4690971   0.0000000), wk =   0.0937500
        k(   26) = (   0.1875000   0.5412659   0.0000000), wk =   0.0937500
        k(   27) = (   0.2500000   0.4330127   0.0000000), wk =   0.0468750
        k(   28) = (   0.2500000   0.5051815   0.0000000), wk =   0.0937500
        k(   29) = (   0.2500000   0.5773503   0.0000000), wk =   0.0468750
        k(   30) = (   0.3125000   0.5412659   0.0000000), wk =   0.0468750

     Dense  grid:   853823 G-vectors     FFT dimensions: (  50,  50, 768)

     Smooth grid:   302525 G-vectors     FFT dimensions: (  36,  36, 540)

     Estimated max dynamical RAM per process >     171.88 MB

     Estimated total dynamical RAM >       4.03 GB

     Initial potential from superposition of free atoms

     starting charge      91.9979, renormalised to      92.0000

     negative rho (up, down):  1.990E-04 0.000E+00


     %%%%%%%%%%%%%%%%%%%%%%%%%%%%%%%%%%%%%%%%%%%%%%%%%%%%%%%%%%%%%%%%%%%%%%%%
     %                                                                      %
     % You are using vdW-DF, which was implemented by the Thonhauser group. %
     % Please cite the following two papers that made this development      %
     % possible and the two reviews that describe the various versions:     %
     %                                                                      %
     %   T. Thonhauser et al., PRL 115, 136402 (2015).                      %
     %   T. Thonhauser et al., PRB 76, 125112 (2007).                       %
     %   K. Berland et al., Rep. Prog. Phys. 78, 066501 (2015).             %
     %   D.C. Langreth et al., J. Phys.: Condens. Matter 21, 084203 (2009). %
     %                                                                      %
     % If you are calculating stress with vdW-DF, please also cite:         %
     %                                                                      %
     %   R. Sabatini et al., J. Phys.: Condens. Matter 24, 424209 (2012).   %
     %                                                                      %
     %%%%%%%%%%%%%%%%%%%%%%%%%%%%%%%%%%%%%%%%%%%%%%%%%%%%%%%%%%%%%%%%%%%%%%%%

     %%%%%%%%%%%%%%%%%%%%%%%%%%%%%%%%%%%%%%%%%%%%%%%%%%%%%%%%%%%%%%%%%%%%%%%%
     %                                                                      %
     %  vdW-DF NEWS:                                                        %
     %                                                                      %
     %  * vdW-DF3 is now available. DOI: 10.1021/acs.jctc.0c00471           %
     %    use with input_dft = 'vdW-DF3-opt1' or 'vdW-DF3-opt2'             %
     %                                                                      %
     %  * Unscreened and range-separated hybrid vdW-DF-cx functionals       %
     %    DOI: 10.1063/1.4986522 and 10.1088/1361-648X/ac2ad2               %
     %    use with input_dft = 'vdW-DF-cx0'    and 'vdW-DF-ahcx'            %
     %  * Unscreened and range-separated hybrid vdW-DF2-b86r functionals    %
     %    DOI: 10.1063/1.4986522 and DOI: 10.1103/PhysRevX.12.041003        %
     %    use with input_dft = 'vdW-DF2-br0' and 'vdW-DF2-ahbr'             %
     %                                                                      %
     %%%%%%%%%%%%%%%%%%%%%%%%%%%%%%%%%%%%%%%%%%%%%%%%%%%%%%%%%%%%%%%%%%%%%%%%


     Starting wfcs are   56 randomized atomic wfcs
     Checking if some PAW data can be deallocated... 

     total cpu time spent up to now is       12.1 secs

     per-process dynamical memory:    79.7 Mb

     Self-consistent Calculation

     iteration #  1     ecut=    80.00 Ry     beta= 0.30
     Davidson diagonalization with overlap
     ethr =  1.00E-02,  avg # of iterations =  4.3

     Threshold (ethr) on eigenvalues was too large:
     Diagonalizing with lowered threshold

     Davidson diagonalization with overlap
     ethr =  4.34E-04,  avg # of iterations =  2.2

     negative rho (up, down):  6.823E-05 0.000E+00

     total cpu time spent up to now is       50.4 secs

     total energy              =   -2326.97332036 Ry
     estimated scf accuracy    <       0.44638579 Ry

     iteration #  2     ecut=    80.00 Ry     beta= 0.30
     Davidson diagonalization with overlap
     ethr =  4.85E-04,  avg # of iterations =  1.8

     negative rho (up, down):  6.000E-05 0.000E+00

     total cpu time spent up to now is       66.8 secs

     total energy              =   -2326.92860800 Ry
     estimated scf accuracy    <       0.22731818 Ry

     iteration #  3     ecut=    80.00 Ry     beta= 0.30
     Davidson diagonalization with overlap
     ethr =  2.47E-04,  avg # of iterations =  4.1

     negative rho (up, down):  3.221E-05 0.000E+00

     total cpu time spent up to now is       85.6 secs

     total energy              =   -2326.93573545 Ry
     estimated scf accuracy    <       0.02801794 Ry

     iteration #  4     ecut=    80.00 Ry     beta= 0.30
     Davidson diagonalization with overlap
     ethr =  3.05E-05,  avg # of iterations =  7.3

     negative rho (up, down):  1.871E-05 0.000E+00

     total cpu time spent up to now is      106.7 secs

     total energy              =   -2326.93636267 Ry
     estimated scf accuracy    <       0.00835753 Ry

     iteration #  5     ecut=    80.00 Ry     beta= 0.30
     Davidson diagonalization with overlap
     ethr =  9.08E-06,  avg # of iterations =  4.4

     negative rho (up, down):  2.511E-06 0.000E+00

     total cpu time spent up to now is      127.0 secs

     total energy              =   -2326.93606378 Ry
     estimated scf accuracy    <       0.00388668 Ry

     iteration #  6     ecut=    80.00 Ry     beta= 0.30
     Davidson diagonalization with overlap
     ethr =  4.22E-06,  avg # of iterations =  4.9

     negative rho (up, down):  7.091E-07 0.000E+00

     total cpu time spent up to now is      147.2 secs

     total energy              =   -2326.93589450 Ry
     estimated scf accuracy    <       0.00218221 Ry

     iteration #  7     ecut=    80.00 Ry     beta= 0.30
     Davidson diagonalization with overlap
     ethr =  2.37E-06,  avg # of iterations =  4.3

     negative rho (up, down):  2.786E-04 0.000E+00

     total cpu time spent up to now is      165.7 secs

     total energy              =   -2326.93570635 Ry
     estimated scf accuracy    <       0.00191753 Ry

     iteration #  8     ecut=    80.00 Ry     beta= 0.30
     Davidson diagonalization with overlap
     ethr =  2.08E-06,  avg # of iterations =  6.6

     negative rho (up, down):  1.342E-03 0.000E+00

     total cpu time spent up to now is      185.4 secs

     total energy              =   -2326.93569235 Ry
     estimated scf accuracy    <       0.00081032 Ry

     iteration #  9     ecut=    80.00 Ry     beta= 0.30
     Davidson diagonalization with overlap
     ethr =  8.81E-07,  avg # of iterations =  3.0

     negative rho (up, down):  1.717E-03 0.000E+00

     total cpu time spent up to now is      203.5 secs

     total energy              =   -2326.93572850 Ry
     estimated scf accuracy    <       0.00056373 Ry

     iteration # 10     ecut=    80.00 Ry     beta= 0.30
     Davidson diagonalization with overlap
     ethr =  6.13E-07,  avg # of iterations =  6.7

     negative rho (up, down):  4.991E-03 0.000E+00

     total cpu time spent up to now is      223.3 secs

     total energy              =   -2326.93570523 Ry
     estimated scf accuracy    <       0.00041637 Ry

     iteration # 11     ecut=    80.00 Ry     beta= 0.30
     Davidson diagonalization with overlap
     ethr =  4.53E-07,  avg # of iterations =  4.4

     negative rho (up, down):  5.620E-03 0.000E+00

     total cpu time spent up to now is      241.2 secs

     total energy              =   -2326.93561690 Ry
     estimated scf accuracy    <       0.00034279 Ry

     iteration # 12     ecut=    80.00 Ry     beta= 0.30
     Davidson diagonalization with overlap
     ethr =  3.73E-07,  avg # of iterations =  5.0

     negative rho (up, down):  6.142E-03 0.000E+00

     total cpu time spent up to now is      259.5 secs

     total energy              =   -2326.93560857 Ry
     estimated scf accuracy    <       0.00023498 Ry

     iteration # 13     ecut=    80.00 Ry     beta= 0.30
     Davidson diagonalization with overlap
     ethr =  2.55E-07,  avg # of iterations =  3.4

     negative rho (up, down):  5.679E-03 0.000E+00

     total cpu time spent up to now is      276.6 secs

     total energy              =   -2326.93556905 Ry
     estimated scf accuracy    <       0.00016729 Ry

     iteration # 14     ecut=    80.00 Ry     beta= 0.30
     Davidson diagonalization with overlap
     ethr =  1.82E-07,  avg # of iterations =  4.6

     negative rho (up, down):  4.499E-03 0.000E+00

     total cpu time spent up to now is      294.2 secs

     total energy              =   -2326.93556435 Ry
     estimated scf accuracy    <       0.00011847 Ry

     iteration # 15     ecut=    80.00 Ry     beta= 0.30
     Davidson diagonalization with overlap
     ethr =  1.29E-07,  avg # of iterations =  5.3

     negative rho (up, down):  3.516E-03 0.000E+00

     total cpu time spent up to now is      312.0 secs

     total energy              =   -2326.93554153 Ry
     estimated scf accuracy    <       0.00007991 Ry

     iteration # 16     ecut=    80.00 Ry     beta= 0.30
     Davidson diagonalization with overlap
     ethr =  8.69E-08,  avg # of iterations =  5.6

     negative rho (up, down):  2.925E-03 0.000E+00

     total cpu time spent up to now is      331.4 secs

     total energy              =   -2326.93556716 Ry
     estimated scf accuracy    <       0.00002561 Ry

     iteration # 17     ecut=    80.00 Ry     beta= 0.30
     Davidson diagonalization with overlap
     ethr =  2.78E-08,  avg # of iterations =  3.8

     negative rho (up, down):  1.256E-03 0.000E+00

     total cpu time spent up to now is      348.7 secs

     total energy              =   -2326.93562481 Ry
     estimated scf accuracy    <       0.00001622 Ry

     iteration # 18     ecut=    80.00 Ry     beta= 0.30
     Davidson diagonalization with overlap
     ethr =  1.76E-08,  avg # of iterations =  5.9

     negative rho (up, down):  1.064E-03 0.000E+00

     total cpu time spent up to now is      369.8 secs

     total energy              =   -2326.93563068 Ry
     estimated scf accuracy    <       0.00000194 Ry

     iteration # 19     ecut=    80.00 Ry     beta= 0.30
     Davidson diagonalization with overlap
     ethr =  2.10E-09,  avg # of iterations =  2.0

     negative rho (up, down):  4.677E-04 0.000E+00

     total cpu time spent up to now is      388.0 secs

     total energy              =   -2326.93563150 Ry
     estimated scf accuracy    <       0.00000114 Ry

     iteration # 20     ecut=    80.00 Ry     beta= 0.30
     Davidson diagonalization with overlap
     ethr =  1.24E-09,  avg # of iterations =  4.3

     negative rho (up, down):  2.928E-04 0.000E+00

     total cpu time spent up to now is      407.5 secs

     total energy              =   -2326.93563050 Ry
     estimated scf accuracy    <       0.00000039 Ry

     iteration # 21     ecut=    80.00 Ry     beta= 0.30
     Davidson diagonalization with overlap
     ethr =  4.22E-10,  avg # of iterations =  2.0

     negative rho (up, down):  2.949E-04 0.000E+00

     total cpu time spent up to now is      427.0 secs

     total energy              =   -2326.93563065 Ry
     estimated scf accuracy    <       0.00000009 Ry

     iteration # 22     ecut=    80.00 Ry     beta= 0.30
     Davidson diagonalization with overlap
     ethr =  9.77E-11,  avg # of iterations =  2.0

     negative rho (up, down):  2.875E-04 0.000E+00

     total cpu time spent up to now is      445.8 secs

     total energy              =   -2326.93563074 Ry
     estimated scf accuracy    <       0.00000005 Ry

     iteration # 23     ecut=    80.00 Ry     beta= 0.30
     Davidson diagonalization with overlap
     ethr =  5.28E-11,  avg # of iterations =  1.2

     negative rho (up, down):  2.660E-04 0.000E+00

     total cpu time spent up to now is      461.5 secs

     total energy              =   -2326.93563076 Ry
     estimated scf accuracy    <       0.00000003 Ry

     iteration # 24     ecut=    80.00 Ry     beta= 0.30
     Davidson diagonalization with overlap
     ethr =  3.59E-11,  avg # of iterations =  2.1

     negative rho (up, down):  2.349E-04 0.000E+00

     total cpu time spent up to now is      479.7 secs

     End of self-consistent calculation

          k = 0.0000 0.0000 0.0000 ( 37787 PWs)   bands (ev):

   -61.8993 -61.8938 -48.3011 -48.3011 -48.3007 -48.3007 -48.2944 -48.2944
   -48.2923 -48.2923 -48.2579 -48.2579 -48.2547 -48.2547 -48.2523 -48.2523
   -48.2464 -48.2464 -48.2401 -48.2358 -48.2348 -48.2276 -36.0179 -36.0148
   -35.9024 -35.9024 -35.8951 -35.8951 -15.3280 -15.2725 -14.5203 -14.4425
    -6.6061  -6.3131  -3.7019  -3.3660  -3.3660  -3.3534  -3.3534  -2.9894
    -1.7306  -1.3244  -1.0686  -1.0686  -1.0607  -1.0607   0.2147   0.2147
     0.2385   0.2385   2.9276   2.9276   2.9618   2.9618   3.4327

          k = 0.0000 0.0722 0.0000 ( 37755 PWs)   bands (ev):

   -61.8983 -61.8928 -48.3011 -48.3009 -48.3007 -48.3005 -48.2943 -48.2942
   -48.2922 -48.2921 -48.2580 -48.2580 -48.2548 -48.2548 -48.2523 -48.2523
   -48.2465 -48.2465 -48.2400 -48.2357 -48.2347 -48.2276 -36.0157 -36.0125
   -35.9131 -35.9057 -35.9049 -35.8976 -15.2711 -15.2158 -14.4902 -14.4136
    -6.5289  -6.2358  -4.0166  -3.7143  -3.3341  -3.3215  -3.1059  -2.7170
    -1.7469  -1.4410  -1.2644  -1.2163  -1.2072  -1.2037   0.1098   0.1506
     0.3273   0.3520   2.6213   2.6456   2.8757   2.9162   3.5425

          k = 0.0000 0.1443 0.0000 ( 37697 PWs)   bands (ev):

   -61.8955 -61.8901 -48.3011 -48.3007 -48.3004 -48.3000 -48.2943 -48.2936
   -48.2922 -48.2915 -48.2582 -48.2580 -48.2550 -48.2548 -48.2525 -48.2523
   -48.2467 -48.2465 -48.2398 -48.2355 -48.2344 -48.2273 -36.0093 -36.0061
   -35.9432 -35.9359 -35.9118 -35.9045 -15.1045 -15.0498 -14.4018 -14.3288
    -6.3053  -6.0128  -4.4572  -4.2040  -3.2592  -3.2462  -2.8846  -2.5566
    -2.1123  -2.0315  -1.5488  -1.5053  -1.4935  -1.2899  -0.0409   0.0938
     0.5155   0.5445   2.0165   2.0967   2.7702   2.8216   3.8069

          k = 0.0000 0.2165 0.0000 ( 37653 PWs)   bands (ev):

   -61.8914 -61.8860 -48.3010 -48.3007 -48.2996 -48.2992 -48.2943 -48.2928
   -48.2922 -48.2907 -48.2584 -48.2581 -48.2552 -48.2549 -48.2527 -48.2524
   -48.2469 -48.2466 -48.2394 -48.2351 -48.2340 -48.2269 -36.0000 -35.9968
   -35.9877 -35.9804 -35.9222 -35.9149 -14.8409 -14.7876 -14.2620 -14.1949
    -5.9669  -5.6799  -4.8549  -4.6430  -3.2783  -3.2493  -3.2083  -3.1945
    -2.5868  -2.2944  -1.7306  -1.7157  -1.6357  -1.4421  -0.1005   0.0903
     0.6191   0.6534   1.6008   1.8411   2.6994   2.7608   4.1828

          k = 0.0000 0.2887 0.0000 ( 37721 PWs)   bands (ev):

   -61.8866 -61.8811 -48.3010 -48.3006 -48.2987 -48.2983 -48.2943 -48.2922
   -48.2919 -48.2898 -48.2588 -48.2582 -48.2555 -48.2550 -48.2531 -48.2525
   -48.2472 -48.2467 -48.2389 -48.2346 -48.2336 -48.2265 -36.0407 -36.0333
   -35.9881 -35.9850 -35.9344 -35.9270 -14.5064 -14.4558 -14.0794 -14.0202
    -5.6435  -5.3990  -5.0775  -4.8799  -4.2962  -4.2703  -3.2639  -3.2487
    -2.7443  -2.5154  -1.8615  -1.7766  -1.7571  -1.7478  -0.0487   0.1817
     0.6238   0.6591   1.6470   2.0431   2.6952   2.7668   4.6581

          k = 0.0000 0.3608 0.0000 ( 37749 PWs)   bands (ev):

   -61.8817 -61.8763 -48.3011 -48.3006 -48.2978 -48.2974 -48.2943 -48.2921
   -48.2910 -48.2889 -48.2591 -48.2584 -48.2557 -48.2551 -48.2534 -48.2527
   -48.2474 -48.2468 -48.2385 -48.2342 -48.2331 -48.2260 -36.0927 -36.0853
   -35.9768 -35.9737 -35.9465 -35.9392 -14.1551 -14.1102 -13.8548 -13.8046
    -5.6853  -5.5600  -5.2645  -5.2239  -4.8336  -4.6218  -3.4135  -3.3969
    -3.0705  -2.9075  -2.1241  -2.0244  -1.6761  -1.6484   0.2030   0.4301
     0.6045   0.6337   2.0251   2.4957   2.7260   2.8083   5.1626

          k = 0.0000 0.4330 0.0000 ( 37785 PWs)   bands (ev):

   -61.8776 -61.8721 -48.3011 -48.3005 -48.2970 -48.2967 -48.2943 -48.2921
   -48.2903 -48.2882 -48.2594 -48.2584 -48.2559 -48.2552 -48.2536 -48.2527
   -48.2477 -48.2469 -48.2381 -48.2338 -48.2327 -48.2256 -36.1365 -36.1290
   -35.9672 -35.9641 -35.9568 -35.9495 -13.8853 -13.8498 -13.5716 -13.5306
    -6.2232  -6.1903  -5.6620  -5.5246  -4.6024  -4.4896  -3.5733  -3.5558
    -3.3373  -3.1493  -2.2903  -2.2095  -1.5488  -1.5102   0.5837   0.6258
     0.6439   0.7669   2.5245   2.7572   2.8492   2.9721   4.9193

          k = 0.0000 0.5052 0.0000 ( 37822 PWs)   bands (ev):

   -61.8748 -61.8694 -48.3012 -48.3004 -48.2965 -48.2962 -48.2943 -48.2921
   -48.2898 -48.2877 -48.2596 -48.2585 -48.2561 -48.2552 -48.2538 -48.2528
   -48.2478 -48.2470 -48.2378 -48.2335 -48.2325 -48.2254 -36.1655 -36.1580
   -35.9637 -35.9607 -35.9577 -35.9563 -13.7340 -13.7086 -13.3050 -13.2744
    -6.7798  -6.7486  -5.6654  -5.5626  -4.7545  -4.6656  -3.6857  -3.6677
    -3.2285  -3.0290  -2.4079  -2.3504  -1.4671  -1.4191   0.6801   0.6901
     0.9545   1.0717   2.7761   2.8748   2.9885   3.3083   4.4869

          k = 0.0000-0.5774 0.0000 ( 37832 PWs)   bands (ev):

   -61.8739 -61.8684 -48.3012 -48.3004 -48.2963 -48.2960 -48.2943 -48.2921
   -48.2896 -48.2875 -48.2596 -48.2585 -48.2561 -48.2553 -48.2539 -48.2528
   -48.2479 -48.2470 -48.2377 -48.2335 -48.2324 -48.2253 -36.1757 -36.1682
   -35.9661 -35.9588 -35.9584 -35.9554 -13.6836 -13.6632 -13.1953 -13.1712
    -6.9837  -6.9555  -5.6113  -5.5607  -4.8953  -4.8050  -3.7255  -3.7073
    -3.0879  -2.9184  -2.4719  -2.4218  -1.4415  -1.3899   0.7085   0.7176
     1.1254   1.1918   2.7821   2.8831   3.2368   3.4445   4.1861

          k = 0.0625 0.1083 0.0000 ( 37709 PWs)   bands (ev):

   -61.8964 -61.8910 -48.3011 -48.3007 -48.3006 -48.3002 -48.2943 -48.2938
   -48.2922 -48.2917 -48.2581 -48.2580 -48.2549 -48.2548 -48.2524 -48.2523
   -48.2466 -48.2465 -48.2398 -48.2356 -48.2345 -48.2274 -36.0113 -36.0082
   -35.9331 -35.9258 -35.9099 -35.9026 -15.1593 -15.1044 -14.4309 -14.3567
    -6.3781  -6.0852  -4.3387  -4.0721  -3.2877  -3.2752  -2.9184  -2.5456
    -1.9155  -1.8338  -1.5208  -1.4923  -1.4401  -1.2242   0.0286   0.1387
     0.4179   0.4416   2.2592   2.2964   2.7377   2.7701   3.7261

          k = 0.0625 0.1804 0.0000 ( 37703 PWs)   bands (ev):

   -61.8930 -61.8875 -48.3010 -48.3007 -48.2999 -48.2995 -48.2943 -48.2932
   -48.2922 -48.2911 -48.2583 -48.2581 -48.2551 -48.2549 -48.2526 -48.2524
   -48.2468 -48.2466 -48.2395 -48.2352 -48.2342 -48.2271 -36.0034 -36.0003
   -35.9698 -35.9624 -35.9193 -35.9120 -14.9438 -14.8898 -14.3170 -14.2475
    -6.0926  -5.8017  -4.7211  -4.4950  -3.2831  -3.2700  -2.9114  -2.7484
    -2.5036  -2.3863  -1.7970  -1.7208  -1.4952  -1.2636   0.0072   0.1577
     0.4277   0.4475   1.9051   2.0449   2.5586   2.6032   4.0412

          k = 0.0625 0.2526 0.0000 ( 37702 PWs)   bands (ev):

   -61.8885 -61.8831 -48.3010 -48.3006 -48.2991 -48.2987 -48.2942 -48.2923
   -48.2921 -48.2903 -48.2586 -48.2582 -48.2553 -48.2550 -48.2529 -48.2525
   -48.2470 -48.2467 -48.2391 -48.2348 -48.2337 -48.2266 -36.0175 -36.0101
   -35.9927 -35.9896 -35.9317 -35.9244 -14.6428 -14.5908 -14.1568 -14.0943
    -5.7284  -5.4510  -5.0363  -4.8421  -3.8493  -3.8293  -3.2397  -3.2113
    -2.6891  -2.5233  -2.0000  -1.9320  -1.5082  -1.3585  -0.0732   0.0884
     0.4872   0.5640   1.7580   1.9956   2.5381   2.5870   4.4667

          k = 0.0625 0.3248 0.0000 ( 37734 PWs)   bands (ev):

   -61.8837 -61.8782 -48.3010 -48.3005 -48.2982 -48.2979 -48.2942 -48.2921
   -48.2915 -48.2894 -48.2589 -48.2583 -48.2556 -48.2551 -48.2532 -48.2526
   -48.2473 -48.2468 -48.2387 -48.2344 -48.2333 -48.2262 -36.0684 -36.0610
   -35.9815 -35.9784 -35.9451 -35.9378 -14.2924 -14.2445 -13.9581 -13.9042
    -5.5721  -5.3835  -5.0176  -4.8728  -4.7980  -4.7205  -3.4783  -3.4507
    -2.7933  -2.6699  -2.2926  -2.2679  -1.4766  -1.3902  -0.0408   0.1437
     0.6350   0.7020   1.8590   2.1390   2.6305   2.7261   4.9801

          k = 0.0625 0.3969 0.0000 ( 37770 PWs)   bands (ev):

   -61.8792 -61.8737 -48.3010 -48.3004 -48.2974 -48.2970 -48.2942 -48.2920
   -48.2907 -48.2886 -48.2592 -48.2584 -48.2558 -48.2552 -48.2535 -48.2527
   -48.2476 -48.2469 -48.2382 -48.2339 -48.2329 -48.2258 -36.1152 -36.1077
   -35.9710 -35.9679 -35.9574 -35.9501 -13.9718 -13.9316 -13.7091 -13.6643
    -5.8414  -5.8129  -5.5561  -5.4333  -4.6558  -4.4818  -3.7313  -3.6879
    -3.0407  -2.9485  -2.5163  -2.4803  -1.3896  -1.3468   0.1694   0.3152
     0.7896   0.8555   2.1527   2.3437   2.7632   2.9811   5.2780

          k = 0.0625 0.4691 0.0000 ( 37798 PWs)   bands (ev):

   -61.8757 -61.8703 -48.3010 -48.3003 -48.2968 -48.2964 -48.2942 -48.2920
   -48.2900 -48.2879 -48.2595 -48.2585 -48.2560 -48.2552 -48.2537 -48.2528
   -48.2477 -48.2470 -48.2379 -48.2336 -48.2326 -48.2254 -36.1507 -36.1432
   -35.9672 -35.9626 -35.9607 -35.9588 -13.7677 -13.7379 -13.4193 -13.3842
    -6.4935  -6.4612  -5.6627  -5.5428  -4.6061  -4.5219  -3.8317  -3.7804
    -3.1754  -3.0458  -2.6192  -2.5901  -1.3356  -1.3233   0.4426   0.5242
     0.9646   1.0376   2.4209   2.5064   2.9543   3.2407   4.8973

          k = 0.0625 0.5413 0.0000 ( 37791 PWs)   bands (ev):

   -61.8739 -61.8684 -48.3011 -48.3003 -48.2964 -48.2961 -48.2942 -48.2919
   -48.2897 -48.2876 -48.2596 -48.2586 -48.2561 -48.2553 -48.2538 -48.2529
   -48.2478 -48.2470 -48.2377 -48.2334 -48.2324 -48.2253 -36.1699 -36.1624
   -35.9721 -35.9648 -35.9584 -35.9554 -13.6696 -13.6481 -13.2195 -13.1942
    -6.8789  -6.8500  -5.6201  -5.5515  -4.8153  -4.7250  -3.8307  -3.8136
    -3.0727  -2.9347  -2.6840  -2.6705  -1.3350  -1.3268   0.6528   0.6797
     1.0940   1.1581   2.5221   2.6085   3.1863   3.4071   4.4685

          k = 0.1250 0.2165 0.0000 ( 37731 PWs)   bands (ev):

   -61.8892 -61.8837 -48.3009 -48.3006 -48.2993 -48.2989 -48.2942 -48.2926
   -48.2921 -48.2905 -48.2586 -48.2582 -48.2553 -48.2550 -48.2529 -48.2525
   -48.2470 -48.2467 -48.2392 -48.2349 -48.2338 -48.2267 -36.0076 -36.0003
   -35.9946 -35.9915 -35.9323 -35.9250 -14.6895 -14.6371 -14.1833 -14.1197
    -5.7628  -5.4759  -5.0056  -4.8103  -3.7054  -3.6875  -3.0881  -2.9437
    -2.8728  -2.8565  -2.0052  -1.8748  -1.4099  -1.2017   0.0214   0.0733
     0.2551   0.4405   2.0989   2.1601   2.2008   2.3364   4.4041

          k = 0.1250 0.2887 0.0000 ( 37723 PWs)   bands (ev):

   -61.8847 -61.8793 -48.3008 -48.3004 -48.2986 -48.2982 -48.2940 -48.2919
   -48.2918 -48.2897 -48.2589 -48.2583 -48.2555 -48.2551 -48.2531 -48.2526
   -48.2472 -48.2468 -48.2388 -48.2345 -48.2334 -48.2263 -36.0512 -36.0438
   -35.9842 -35.9811 -35.9483 -35.9409 -14.3657 -14.3164 -14.0113 -13.9556
    -5.4514  -5.2194  -5.1452  -4.9397  -4.4746  -4.4554  -3.4985  -3.4316
    -2.9679  -2.9426  -2.2394  -2.1740  -1.2792  -1.1147  -0.2262  -0.0837
     0.5468   0.7034   1.8611   1.8794   2.4098   2.6643   4.8738

          k = 0.1250 0.3608 0.0000 ( 37761 PWs)   bands (ev):

   -61.8802 -61.8748 -48.3008 -48.3002 -48.2978 -48.2975 -48.2939 -48.2918
   -48.2911 -48.2890 -48.2591 -48.2584 -48.2557 -48.2552 -48.2534 -48.2527
   -48.2475 -48.2469 -48.2383 -48.2341 -48.2330 -48.2259 -36.0941 -36.0867
   -35.9744 -35.9710 -35.9640 -35.9569 -14.0228 -13.9792 -13.8049 -13.7582
    -5.5576  -5.4384  -5.2802  -5.2518  -4.7817  -4.5581  -3.8763  -3.8257
    -3.0715  -3.0400  -2.6538  -2.6176  -1.1293  -1.0152  -0.2064  -0.0358
     0.8452   0.9437   1.7559   1.8238   2.6907   2.9917   5.4018

          k = 0.1250 0.4330 0.0000 ( 37768 PWs)   bands (ev):

   -61.8764 -61.8710 -48.3007 -48.3000 -48.2972 -48.2969 -48.2938 -48.2917
   -48.2905 -48.2884 -48.2594 -48.2585 -48.2559 -48.2553 -48.2536 -48.2528
   -48.2477 -48.2470 -48.2380 -48.2337 -48.2326 -48.2255 -36.1301 -36.1227
   -35.9794 -35.9721 -35.9641 -35.9609 -13.7666 -13.7327 -13.5379 -13.5001
    -6.0831  -6.0551  -5.5973  -5.4750  -4.4694  -4.3580  -4.1188  -4.0283
    -3.1849  -3.1520  -3.0025  -2.9626  -1.0737  -1.0069   0.0439   0.1910
     1.0537   1.1053   1.8493   1.9408   2.9526   3.2378   5.4575

          k = 0.1250 0.5052 0.0000 ( 37794 PWs)   bands (ev):

   -61.8739 -61.8684 -48.3007 -48.2999 -48.2968 -48.2964 -48.2938 -48.2916
   -48.2900 -48.2880 -48.2595 -48.2586 -48.2560 -48.2553 -48.2538 -48.2529
   -48.2478 -48.2471 -48.2378 -48.2335 -48.2324 -48.2253 -36.1540 -36.1466
   -35.9884 -35.9811 -35.9585 -35.9554 -13.6283 -13.6046 -13.2845 -13.2570
    -6.5868  -6.5578  -5.6099  -5.5265  -4.6185  -4.5373  -4.0691  -3.9997
    -3.2672  -3.2339  -3.0851  -3.0116  -1.1198  -1.0741   0.4053   0.5001
     1.1098   1.1442   2.0167   2.0962   3.1458   3.3502   5.0777

          k = 0.1250 0.5774 0.0000 ( 37780 PWs)   bands (ev):

   -61.8730 -61.8675 -48.3007 -48.2999 -48.2966 -48.2963 -48.2938 -48.2916
   -48.2899 -48.2878 -48.2596 -48.2587 -48.2561 -48.2554 -48.2538 -48.2529
   -48.2479 -48.2471 -48.2377 -48.2334 -48.2323 -48.2252 -36.1624 -36.1549
   -35.9917 -35.9843 -35.9564 -35.9534 -13.5818 -13.5630 -13.1821 -13.1609
    -6.7701  -6.7418  -5.5811  -5.5398  -4.7354  -4.6463  -4.0520  -4.0092
    -3.2958  -3.2633  -3.0404  -2.9712  -1.1569  -1.1144   0.6445   0.6635
     1.0532   1.1017   2.1138   2.1593   3.2159   3.3846   4.8233

          k = 0.1875 0.3248 0.0000 ( 37725 PWs)   bands (ev):

   -61.8806 -61.8751 -48.3006 -48.3001 -48.2980 -48.2976 -48.2938 -48.2917
   -48.2913 -48.2892 -48.2591 -48.2584 -48.2557 -48.2552 -48.2534 -48.2527
   -48.2474 -48.2469 -48.2384 -48.2341 -48.2330 -48.2259 -36.0846 -36.0771
   -35.9765 -35.9727 -35.9676 -35.9610 -14.0392 -13.9943 -13.8395 -13.7923
    -5.4472  -5.2902  -5.1059  -5.0968  -4.8636  -4.6385  -3.8852  -3.8224
    -3.3456  -3.3268  -2.5189  -2.5161  -0.9875  -0.8333  -0.3782  -0.2094
     0.8314   0.9610   1.5987   1.6018   2.6721   2.9923   5.3736

          k = 0.1875 0.3969 0.0000 ( 37753 PWs)   bands (ev):

   -61.8768 -61.8713 -48.3004 -48.2997 -48.2976 -48.2972 -48.2935 -48.2914
   -48.2908 -48.2887 -48.2593 -48.2586 -48.2559 -48.2553 -48.2536 -48.2529
   -48.2476 -48.2470 -48.2380 -48.2337 -48.2327 -48.2255 -36.1133 -36.1059
   -35.9917 -35.9844 -35.9650 -35.9618 -13.7329 -13.6962 -13.6359 -13.5980
    -5.7097  -5.6952  -5.5147  -5.4001  -4.4753  -4.2894  -4.2243  -4.1537
    -3.6761  -3.6484  -2.9319  -2.8994  -0.7620  -0.6542  -0.3077  -0.1499
     1.0692   1.1455   1.4928   1.5542   2.9609   3.2434   5.8150

          k = 0.1875 0.4691 0.0000 ( 37759 PWs)   bands (ev):

   -61.8739 -61.8684 -48.3002 -48.2995 -48.2972 -48.2969 -48.2933 -48.2911
   -48.2905 -48.2884 -48.2594 -48.2587 -48.2560 -48.2554 -48.2537 -48.2530
   -48.2478 -48.2471 -48.2378 -48.2335 -48.2324 -48.2253 -36.1342 -36.1268
   -36.0087 -36.0014 -35.9585 -35.9554 -13.5640 -13.5378 -13.3717 -13.3427
    -6.1964  -6.1732  -5.5637  -5.4830  -4.4767  -4.4072  -4.1818  -4.0640
    -3.9106  -3.8630  -3.1882  -3.1800  -0.7904  -0.7152   0.0463   0.1577
     1.1306   1.1611   1.6126   1.7269   3.1514   3.3179   5.6473

          k = 0.1875 0.5413 0.0000 ( 37793 PWs)   bands (ev):

   -61.8723 -61.8668 -48.3001 -48.2993 -48.2970 -48.2967 -48.2932 -48.2910
   -48.2903 -48.2882 -48.2595 -48.2588 -48.2561 -48.2554 -48.2538 -48.2530
   -48.2478 -48.2472 -48.2376 -48.2333 -48.2323 -48.2251 -36.1452 -36.1377
   -36.0184 -36.0110 -35.9549 -35.9519 -13.4813 -13.4634 -13.1979 -13.1785
    -6.4760  -6.4481  -5.5715  -5.5303  -4.5741  -4.4908  -4.2017  -4.1359
    -3.9882  -3.9367  -3.2158  -3.1973  -0.8723  -0.8052   0.4410   0.4912
     0.9843   1.0126   1.8320   1.9106   3.1613   3.2737   5.3977

          k = 0.2500 0.4330 0.0000 ( 37711 PWs)   bands (ev):

   -61.8739 -61.8684 -48.2999 -48.2992 -48.2975 -48.2971 -48.2930 -48.2909
   -48.2906 -48.2886 -48.2594 -48.2587 -48.2560 -48.2554 -48.2537 -48.2530
   -48.2477 -48.2471 -48.2378 -48.2335 -48.2324 -48.2253 -36.1238 -36.1164
   -36.0193 -36.0120 -35.9585 -35.9554 -13.5047 -13.4779 -13.4398 -13.4108
    -5.9725  -5.9576  -5.5265  -5.4543  -4.4705  -4.3894  -4.2578  -4.2452
    -4.1092  -3.9700  -3.3117  -3.2508  -0.4443  -0.3379  -0.3080  -0.2234
     1.1130   1.1644   1.4849   1.6155   3.1623   3.3073   5.9157

          k = 0.2500 0.5052 0.0000 ( 37776 PWs)   bands (ev):

   -61.8719 -61.8665 -48.2995 -48.2988 -48.2975 -48.2971 -48.2926 -48.2908
   -48.2904 -48.2886 -48.2594 -48.2588 -48.2561 -48.2555 -48.2537 -48.2531
   -48.2478 -48.2472 -48.2376 -48.2333 -48.2322 -48.2251 -36.1263 -36.1189
   -36.0424 -36.0350 -35.9541 -35.9510 -13.3878 -13.3698 -13.2501 -13.2310
    -6.1246  -6.1003  -5.5575  -5.5228  -4.6885  -4.6676  -4.4380  -4.3563
    -4.0117  -3.9392  -3.5392  -3.4924  -0.4871  -0.4060   0.0323   0.0850
     0.9539   0.9687   1.7382   1.9248   3.1186   3.1730   5.6879

          k = 0.2500 0.5774 0.0000 ( 37791 PWs)   bands (ev):

   -61.8712 -61.8658 -48.2994 -48.2986 -48.2975 -48.2971 -48.2925 -48.2908
   -48.2902 -48.2887 -48.2594 -48.2589 -48.2561 -48.2555 -48.2537 -48.2532
   -48.2479 -48.2472 -48.2375 -48.2332 -48.2322 -48.2251 -36.1258 -36.1183
   -36.0519 -36.0445 -35.9525 -35.9495 -13.3462 -13.3331 -13.1774 -13.1645
    -6.1696  -6.1408  -5.5815  -5.5583  -4.8379  -4.8199  -4.2947  -4.2108
    -4.1889  -4.1282  -3.5350  -3.5004  -0.5323  -0.4579   0.2869   0.3425
     0.7439   0.7667   1.9780   2.0983   2.9935   3.0338   5.5970

          k = 0.3125 0.5413 0.0000 ( 37789 PWs)   bands (ev):

   -61.8709 -61.8654 -48.2989 -48.2982 -48.2979 -48.2975 -48.2920 -48.2912
   -48.2898 -48.2890 -48.2594 -48.2590 -48.2562 -48.2555 -48.2537 -48.2532
   -48.2479 -48.2473 -48.2375 -48.2332 -48.2321 -48.2250 -36.1083 -36.1008
   -36.0745 -36.0670 -35.9517 -35.9486 -13.2656 -13.2549 -13.2035 -13.1930
    -5.8680  -5.8351  -5.5847  -5.5725  -5.2810  -5.2532  -4.2868  -4.1921
    -3.9403  -3.8929  -3.8841  -3.8115  -0.2075  -0.1205  -0.0043   0.0643
     0.6531   0.6599   2.1474   2.3465   2.7500   2.8962   5.5288

     the Fermi energy is    -0.3091 ev

!    total energy              =   -2326.93563086 Ry
     total all-electron energy =    -35628.683460 Ry
     estimated scf accuracy    <          7.9E-09 Ry
     smearing contrib. (-TS)   =       0.00093256 Ry
     internal energy E=F+TS    =   -2326.93656341 Ry

     The total energy is F=E-TS. E is the sum of the following terms:
     one-electron contribution =  -28215.91802414 Ry
     hartree contribution      =   14096.16765565 Ry
     xc contribution           =    -152.44031990 Ry
     ewald contribution        =   12955.76851642 Ry
     one-center paw contrib.   =   -1010.51439143 Ry

     convergence has been achieved in  24 iterations

     Writing all to output data dir ./tmp/cleave_003/mose2_cleave_003.save/ :
     XML data file, charge density, pseudopotentials, collected wavefunctions

     init_run     :     11.69s CPU     11.87s WALL (       1 calls)
     electrons    :    459.33s CPU    467.66s WALL (       1 calls)

     Called by init_run:
     wfcinit      :      5.33s CPU      5.36s WALL (       1 calls)
     potinit      :      5.70s CPU      5.75s WALL (       1 calls)
     hinit0       :      0.05s CPU      0.06s WALL (       1 calls)

     Called by electrons:
     c_bands      :    383.51s CPU    385.76s WALL (      25 calls)
     sum_band     :     50.19s CPU     52.88s WALL (      25 calls)
     v_of_rho     :     14.91s CPU     15.82s WALL (      25 calls)
     newd         :      8.99s CPU     11.52s WALL (      25 calls)
     PAW_pot      :      1.56s CPU      1.60s WALL (      25 calls)
     mix_rho      :      6.00s CPU      6.03s WALL (      25 calls)
     vdW_kernel   :      5.26s CPU      5.26s WALL (       1 calls)

     Called by c_bands:
     init_us_2    :      3.55s CPU      3.57s WALL (    1530 calls)
     cegterg      :    376.00s CPU    378.14s WALL (     750 calls)

     Called by *egterg:
     cdiaghg      :     12.72s CPU     12.74s WALL (    3754 calls)
     h_psi        :    168.21s CPU    169.11s WALL (    3814 calls)
     s_psi        :     37.40s CPU     37.46s WALL (    3814 calls)
     g_psi        :      0.69s CPU      0.70s WALL (    3034 calls)

     Called by h_psi:
     h_psi:calbec :     48.14s CPU     48.44s WALL (    3814 calls)
     vloc_psi     :     72.34s CPU     72.85s WALL (    3814 calls)
                                        0.00s GPU  (    3814 calls)
     add_vuspsi   :     47.05s CPU     47.13s WALL (    3814 calls)

     General routines
     calbec       :     68.91s CPU     69.35s WALL (    4564 calls)
     fft          :      5.28s CPU      5.38s WALL (    1574 calls)
     ffts         :      2.10s CPU      2.11s WALL (    2879 calls)
     fftw         :     77.94s CPU     78.50s WALL (  224246 calls)
     interpolate  :      0.11s CPU      0.11s WALL (      25 calls)

     Parallel routines

     PWSCF        :   7m51.67s CPU   8m 0.39s WALL


   This run was terminated on:   9:17:16  20Jun2026            

=------------------------------------------------------------------------------=
   JOB DONE.
=------------------------------------------------------------------------------=
Note: The following floating-point exceptions are signalling: IEEE_UNDERFLOW_FLAG IEEE_DENORMAL
Note: The following floating-point exceptions are signalling: IEEE_UNDERFLOW_FLAG IEEE_DENORMAL
Note: The following floating-point exceptions are signalling: IEEE_UNDERFLOW_FLAG IEEE_DENORMAL
Note: The following floating-point exceptions are signalling: IEEE_UNDERFLOW_FLAG IEEE_DENORMAL
Note: The following floating-point exceptions are signalling: IEEE_UNDERFLOW_FLAG IEEE_DENORMAL
Note: The following floating-point exceptions are signalling: IEEE_UNDERFLOW_FLAG IEEE_DENORMAL
Note: The following floating-point exceptions are signalling: IEEE_UNDERFLOW_FLAG IEEE_DENORMAL
Note: The following floating-point exceptions are signalling: IEEE_UNDERFLOW_FLAG IEEE_DENORMAL
Note: The following floating-point exceptions are signalling: IEEE_UNDERFLOW_FLAG IEEE_DENORMAL
Note: The following floating-point exceptions are signalling: IEEE_UNDERFLOW_FLAG IEEE_DENORMAL
Note: The following floating-point exceptions are signalling: IEEE_UNDERFLOW_FLAG IEEE_DENORMAL
Note: The following floating-point exceptions are signalling: IEEE_UNDERFLOW_FLAG IEEE_DENORMAL
Note: The following floating-point exceptions are signalling: IEEE_UNDERFLOW_FLAG IEEE_DENORMAL
Note: The following floating-point exceptions are signalling: IEEE_UNDERFLOW_FLAG IEEE_DENORMAL
Note: The following floating-point exceptions are signalling: IEEE_UNDERFLOW_FLAG IEEE_DENORMAL
Note: The following floating-point exceptions are signalling: IEEE_UNDERFLOW_FLAG IEEE_DENORMAL
Note: The following floating-point exceptions are signalling: IEEE_UNDERFLOW_FLAG IEEE_DENORMAL
Note: The following floating-point exceptions are signalling: IEEE_UNDERFLOW_FLAG IEEE_DENORMAL
Note: The following floating-point exceptions are signalling: IEEE_UNDERFLOW_FLAG IEEE_DENORMAL
Note: The following floating-point exceptions are signalling: IEEE_UNDERFLOW_FLAG IEEE_DENORMAL
Note: The following floating-point exceptions are signalling: IEEE_UNDERFLOW_FLAG IEEE_DENORMAL
Note: The following floating-point exceptions are signalling: IEEE_UNDERFLOW_FLAG IEEE_DENORMAL
Note: The following floating-point exceptions are signalling: IEEE_UNDERFLOW_FLAG IEEE_DENORMAL
Note: The following floating-point exceptions are signalling: IEEE_UNDERFLOW_FLAG IEEE_DENORMAL
