
     Program PWSCF v.7.5 starts on 20Jun2026 at 11:14:18 

     This program is part of the open-source Quantum ESPRESSO suite
     for quantum simulation of materials; please cite
         "P. Giannozzi et al., J. Phys.:Condens. Matter 21 395502 (2009);
         "P. Giannozzi et al., J. Phys.:Condens. Matter 29 465901 (2017);
         "P. Giannozzi et al., J. Chem. Phys. 152 154105 (2020);
          URL http://www.quantum-espresso.org", 
     in publications or presentations arising from this work. More details at
     http://www.quantum-espresso.org/quote

     Parallel version (MPI), running on    24 processors

     MPI processes distributed on     1 nodes
     4875 MiB available memory on the printing compute node when the environment starts

     Waiting for input...
     Reading input from standard input

     Current dimensions of program PWSCF are:
     Max number of different atomic species (ntypx) = 10
     Max number of k-points (npk) =  40000
     Max angular momentum in pseudopotentials (lmaxx) =  4
     file Mo.pbe-spn-kjpaw_psl.1.0.0.UPF: wavefunction(s)  4S 4D renormalized
     file Se.pbe-dn-kjpaw_psl.1.0.0.UPF: wavefunction(s)  4S 4P 3D renormalized

     IMPORTANT: XC functional enforced from input :
     Exchange-correlation= VDW-DF2-B86R
                           (   1   4  26   0   2   0   0)
     Any further DFT definition will be discarded
     Please, verify this is what you really want


     R & G space division:  proc/nbgrp/npool/nimage =      24
     Subspace diagonalization in iterative solution of the eigenvalue problem:
     a serial algorithm will be used


     Parallelization info
     --------------------
     sticks:   dense  smooth     PW     G-vecs:    dense   smooth      PW
     Min          69      35     10                35537    12585    1924
     Max          70      36     11                35620    12648    1981
     Sum        1675     847    241               853823   302525   46513

     Using Slab Decomposition



     bravais-lattice index     =            4
     lattice parameter (alat)  =       6.1794  a.u.
     unit-cell volume          =    3124.5879 (a.u.)^3
     number of atoms/cell      =            6
     number of atomic types    =            2
     number of electrons       =        92.00
     number of Kohn-Sham states=           55
     kinetic-energy cutoff     =      80.0000  Ry
     charge density cutoff     =     640.0000  Ry
     scf convergence threshold =      1.0E-08
     mixing beta               =       0.3000
     number of iterations used =            8  local-TF  mixing
     Exchange-correlation= VDW-DF2-B86R
                           (   1   4  26   0   2   0   0)

     celldm(1)=   6.179404  celldm(2)=   0.000000  celldm(3)=  15.290520
     celldm(4)=   0.000000  celldm(5)=   0.000000  celldm(6)=   0.000000

     crystal axes: (cart. coord. in units of alat)
               a(1) = (   1.000000   0.000000   0.000000 )  
               a(2) = (  -0.500000   0.866025   0.000000 )  
               a(3) = (   0.000000   0.000000  15.290520 )  

     reciprocal axes: (cart. coord. in units 2 pi/alat)
               b(1) = (  1.000000  0.577350 -0.000000 )  
               b(2) = (  0.000000  1.154701  0.000000 )  
               b(3) = (  0.000000 -0.000000  0.065400 )  


     PseudoPot. # 1 for Mo read from file:
     ./pseudo/Mo.pbe-spn-kjpaw_psl.1.0.0.UPF
     MD5 check sum: 4396e0c640fcce5c25f020efccf1ab12
     Pseudo is Projector augmented-wave + core cor, Zval = 14.0
     Generated using &quot;atomic&quot; code by A. Dal Corso  v.6.3
     Shape of augmentation charge: PSQ
     Using radial grid of 1229 points,  6 beta functions with: 
                l(1) =   0
                l(2) =   0
                l(3) =   1
                l(4) =   1
                l(5) =   2
                l(6) =   2
     Q(r) pseudized with 0 coefficients 


     PseudoPot. # 2 for Se read from file:
     ./pseudo/Se.pbe-dn-kjpaw_psl.1.0.0.UPF
     MD5 check sum: ac240dd2bae32a30e0bf3a38df9c8785
     Pseudo is Projector augmented-wave + core cor, Zval = 16.0
     Generated using &quot;atomic&quot; code by A. Dal Corso  v.6.3
     Shape of augmentation charge: PSQ
     Using radial grid of 1211 points,  6 beta functions with: 
                l(1) =   0
                l(2) =   0
                l(3) =   1
                l(4) =   1
                l(5) =   2
                l(6) =   2
     Q(r) pseudized with 0 coefficients 


     atomic species   valence    mass     pseudopotential
     Mo               14.00    95.96000     Mo( 1.00)
     Se               16.00    78.96000     Se( 1.00)

      6 Sym. Ops. (no inversion) found



   Cartesian axes

     site n.     atom                  positions (alat units)
         1        Se     tau(   1) = (  -0.0000005   0.5773506   6.1238532  )
         2        Mo     tau(   2) = (   0.0000000   0.0000000   6.6502752  )
         3        Se     tau(   3) = (   0.5000005   0.2886748   7.1775994  )
         4        Se     tau(   4) = (  -0.0000005   0.5773506   9.2744190  )
         5        Mo     tau(   5) = (   0.5000005   0.2886748   9.8016055  )
         6        Se     tau(   6) = (   0.0000000   0.0000000  10.3287462  )

     number of k points=    30  Methfessel-Paxton smearing, width (Ry)=  0.0200
                       cart. coord. in units 2pi/alat
        k(    1) = (   0.0000000   0.0000000   0.0000000), wk =   0.0078125
        k(    2) = (   0.0000000   0.0721688   0.0000000), wk =   0.0468750
        k(    3) = (   0.0000000   0.1443376   0.0000000), wk =   0.0468750
        k(    4) = (   0.0000000   0.2165064   0.0000000), wk =   0.0468750
        k(    5) = (   0.0000000   0.2886751   0.0000000), wk =   0.0468750
        k(    6) = (   0.0000000   0.3608439   0.0000000), wk =   0.0468750
        k(    7) = (   0.0000000   0.4330127   0.0000000), wk =   0.0468750
        k(    8) = (   0.0000000   0.5051815   0.0000000), wk =   0.0468750
        k(    9) = (   0.0000000  -0.5773503   0.0000000), wk =   0.0234375
        k(   10) = (   0.0625000   0.1082532   0.0000000), wk =   0.0468750
        k(   11) = (   0.0625000   0.1804220   0.0000000), wk =   0.0937500
        k(   12) = (   0.0625000   0.2525907   0.0000000), wk =   0.0937500
        k(   13) = (   0.0625000   0.3247595   0.0000000), wk =   0.0937500
        k(   14) = (   0.0625000   0.3969283   0.0000000), wk =   0.0937500
        k(   15) = (   0.0625000   0.4690971   0.0000000), wk =   0.0937500
        k(   16) = (   0.0625000   0.5412659   0.0000000), wk =   0.0937500
        k(   17) = (   0.1250000   0.2165064   0.0000000), wk =   0.0468750
        k(   18) = (   0.1250000   0.2886751   0.0000000), wk =   0.0937500
        k(   19) = (   0.1250000   0.3608439   0.0000000), wk =   0.0937500
        k(   20) = (   0.1250000   0.4330127   0.0000000), wk =   0.0937500
        k(   21) = (   0.1250000   0.5051815   0.0000000), wk =   0.0937500
        k(   22) = (   0.1250000   0.5773503   0.0000000), wk =   0.0468750
        k(   23) = (   0.1875000   0.3247595   0.0000000), wk =   0.0468750
        k(   24) = (   0.1875000   0.3969283   0.0000000), wk =   0.0937500
        k(   25) = (   0.1875000   0.4690971   0.0000000), wk =   0.0937500
        k(   26) = (   0.1875000   0.5412659   0.0000000), wk =   0.0937500
        k(   27) = (   0.2500000   0.4330127   0.0000000), wk =   0.0468750
        k(   28) = (   0.2500000   0.5051815   0.0000000), wk =   0.0937500
        k(   29) = (   0.2500000   0.5773503   0.0000000), wk =   0.0468750
        k(   30) = (   0.3125000   0.5412659   0.0000000), wk =   0.0468750

     Dense  grid:   853823 G-vectors     FFT dimensions: (  50,  50, 768)

     Smooth grid:   302525 G-vectors     FFT dimensions: (  36,  36, 540)

     Estimated max dynamical RAM per process >     171.88 MB

     Estimated total dynamical RAM >       4.03 GB

     Initial potential from superposition of free atoms

     starting charge      91.9979, renormalised to      92.0000

     negative rho (up, down):  1.734E-04 0.000E+00


     %%%%%%%%%%%%%%%%%%%%%%%%%%%%%%%%%%%%%%%%%%%%%%%%%%%%%%%%%%%%%%%%%%%%%%%%
     %                                                                      %
     % You are using vdW-DF, which was implemented by the Thonhauser group. %
     % Please cite the following two papers that made this development      %
     % possible and the two reviews that describe the various versions:     %
     %                                                                      %
     %   T. Thonhauser et al., PRL 115, 136402 (2015).                      %
     %   T. Thonhauser et al., PRB 76, 125112 (2007).                       %
     %   K. Berland et al., Rep. Prog. Phys. 78, 066501 (2015).             %
     %   D.C. Langreth et al., J. Phys.: Condens. Matter 21, 084203 (2009). %
     %                                                                      %
     % If you are calculating stress with vdW-DF, please also cite:         %
     %                                                                      %
     %   R. Sabatini et al., J. Phys.: Condens. Matter 24, 424209 (2012).   %
     %                                                                      %
     %%%%%%%%%%%%%%%%%%%%%%%%%%%%%%%%%%%%%%%%%%%%%%%%%%%%%%%%%%%%%%%%%%%%%%%%

     %%%%%%%%%%%%%%%%%%%%%%%%%%%%%%%%%%%%%%%%%%%%%%%%%%%%%%%%%%%%%%%%%%%%%%%%
     %                                                                      %
     %  vdW-DF NEWS:                                                        %
     %                                                                      %
     %  * vdW-DF3 is now available. DOI: 10.1021/acs.jctc.0c00471           %
     %    use with input_dft = 'vdW-DF3-opt1' or 'vdW-DF3-opt2'             %
     %                                                                      %
     %  * Unscreened and range-separated hybrid vdW-DF-cx functionals       %
     %    DOI: 10.1063/1.4986522 and 10.1088/1361-648X/ac2ad2               %
     %    use with input_dft = 'vdW-DF-cx0'    and 'vdW-DF-ahcx'            %
     %  * Unscreened and range-separated hybrid vdW-DF2-b86r functionals    %
     %    DOI: 10.1063/1.4986522 and DOI: 10.1103/PhysRevX.12.041003        %
     %    use with input_dft = 'vdW-DF2-br0' and 'vdW-DF2-ahbr'             %
     %                                                                      %
     %%%%%%%%%%%%%%%%%%%%%%%%%%%%%%%%%%%%%%%%%%%%%%%%%%%%%%%%%%%%%%%%%%%%%%%%


     Starting wfcs are   56 randomized atomic wfcs
     Checking if some PAW data can be deallocated... 

     total cpu time spent up to now is       12.2 secs

     per-process dynamical memory:    79.7 Mb

     Self-consistent Calculation

     iteration #  1     ecut=    80.00 Ry     beta= 0.30
     Davidson diagonalization with overlap
     ethr =  1.00E-02,  avg # of iterations =  4.4

     Threshold (ethr) on eigenvalues was too large:
     Diagonalizing with lowered threshold

     Davidson diagonalization with overlap
     ethr =  4.48E-04,  avg # of iterations =  2.7

     negative rho (up, down):  5.334E-05 0.000E+00

     total cpu time spent up to now is       51.6 secs

     total energy              =   -2326.96339095 Ry
     estimated scf accuracy    <       0.46022031 Ry

     iteration #  2     ecut=    80.00 Ry     beta= 0.30
     Davidson diagonalization with overlap
     ethr =  5.00E-04,  avg # of iterations =  1.1

     negative rho (up, down):  2.128E-05 0.000E+00

     total cpu time spent up to now is       67.0 secs

     total energy              =   -2326.91667068 Ry
     estimated scf accuracy    <       0.24318948 Ry

     iteration #  3     ecut=    80.00 Ry     beta= 0.30
     Davidson diagonalization with overlap
     ethr =  2.64E-04,  avg # of iterations =  2.9

     negative rho (up, down):  8.314E-06 0.000E+00

     total cpu time spent up to now is       85.3 secs

     total energy              =   -2326.92367660 Ry
     estimated scf accuracy    <       0.03136662 Ry

     iteration #  4     ecut=    80.00 Ry     beta= 0.30
     Davidson diagonalization with overlap
     c_bands:  1 eigenvalues not converged
     ethr =  3.41E-05,  avg # of iterations =  8.6

     negative rho (up, down):  3.813E-06 0.000E+00

     total cpu time spent up to now is      106.9 secs

     total energy              =   -2326.92373079 Ry
     estimated scf accuracy    <       0.00967070 Ry

     iteration #  5     ecut=    80.00 Ry     beta= 0.30
     Davidson diagonalization with overlap
     c_bands:  1 eigenvalues not converged
     ethr =  1.05E-05,  avg # of iterations =  3.9

     negative rho (up, down):  6.751E-07 0.000E+00

     total cpu time spent up to now is      127.0 secs

     total energy              =   -2326.92298868 Ry
     estimated scf accuracy    <       0.00381186 Ry

     iteration #  6     ecut=    80.00 Ry     beta= 0.30
     Davidson diagonalization with overlap
     c_bands:  1 eigenvalues not converged
     ethr =  4.14E-06,  avg # of iterations =  8.5

     negative rho (up, down):  2.915E-07 0.000E+00

     total cpu time spent up to now is      149.8 secs

     total energy              =   -2326.92301967 Ry
     estimated scf accuracy    <       0.00133042 Ry

     iteration #  7     ecut=    80.00 Ry     beta= 0.30
     Davidson diagonalization with overlap
     ethr =  1.45E-06,  avg # of iterations =  3.7

     negative rho (up, down):  1.862E-07 0.000E+00

     total cpu time spent up to now is      168.5 secs

     total energy              =   -2326.92287278 Ry
     estimated scf accuracy    <       0.00120342 Ry

     iteration #  8     ecut=    80.00 Ry     beta= 0.30
     Davidson diagonalization with overlap
     ethr =  1.31E-06,  avg # of iterations =  1.9

     negative rho (up, down):  7.089E-08 0.000E+00

     total cpu time spent up to now is      185.9 secs

     total energy              =   -2326.92282216 Ry
     estimated scf accuracy    <       0.00095100 Ry

     iteration #  9     ecut=    80.00 Ry     beta= 0.30
     Davidson diagonalization with overlap
     ethr =  1.03E-06,  avg # of iterations =  1.8

     negative rho (up, down):  2.251E-03 0.000E+00

     total cpu time spent up to now is      203.2 secs

     total energy              =   -2326.92282244 Ry
     estimated scf accuracy    <       0.00072892 Ry

     iteration # 10     ecut=    80.00 Ry     beta= 0.30
     Davidson diagonalization with overlap
     ethr =  7.92E-07,  avg # of iterations =  1.8

     negative rho (up, down):  4.861E-03 0.000E+00

     total cpu time spent up to now is      220.3 secs

     total energy              =   -2326.92275928 Ry
     estimated scf accuracy    <       0.00054670 Ry

     iteration # 11     ecut=    80.00 Ry     beta= 0.30
     Davidson diagonalization with overlap
     ethr =  5.94E-07,  avg # of iterations =  4.0

     negative rho (up, down):  6.701E-03 0.000E+00

     total cpu time spent up to now is      238.5 secs

     total energy              =   -2326.92268850 Ry
     estimated scf accuracy    <       0.00036613 Ry

     iteration # 12     ecut=    80.00 Ry     beta= 0.30
     Davidson diagonalization with overlap
     c_bands:  1 eigenvalues not converged
     ethr =  3.98E-07,  avg # of iterations =  2.7

     negative rho (up, down):  5.957E-03 0.000E+00

     total cpu time spent up to now is      256.7 secs

     total energy              =   -2326.92270068 Ry
     estimated scf accuracy    <       0.00019208 Ry

     iteration # 13     ecut=    80.00 Ry     beta= 0.30
     Davidson diagonalization with overlap
     ethr =  2.09E-07,  avg # of iterations =  1.0

     negative rho (up, down):  2.208E-03 0.000E+00

     total cpu time spent up to now is      272.0 secs

     total energy              =   -2326.92267852 Ry
     estimated scf accuracy    <       0.00015510 Ry

     iteration # 14     ecut=    80.00 Ry     beta= 0.30
     Davidson diagonalization with overlap
     ethr =  1.69E-07,  avg # of iterations =  2.0

     negative rho (up, down):  2.086E-03 0.000E+00

     total cpu time spent up to now is      290.2 secs

     total energy              =   -2326.92267276 Ry
     estimated scf accuracy    <       0.00008943 Ry

     iteration # 15     ecut=    80.00 Ry     beta= 0.30
     Davidson diagonalization with overlap
     ethr =  9.72E-08,  avg # of iterations =  1.0

     negative rho (up, down):  2.041E-03 0.000E+00

     total cpu time spent up to now is      305.8 secs

     total energy              =   -2326.92266233 Ry
     estimated scf accuracy    <       0.00006850 Ry

     iteration # 16     ecut=    80.00 Ry     beta= 0.30
     Davidson diagonalization with overlap
     ethr =  7.45E-08,  avg # of iterations =  2.0

     negative rho (up, down):  8.771E-04 0.000E+00

     total cpu time spent up to now is      324.4 secs

     total energy              =   -2326.92269911 Ry
     estimated scf accuracy    <       0.00001777 Ry

     iteration # 17     ecut=    80.00 Ry     beta= 0.30
     Davidson diagonalization with overlap
     ethr =  1.93E-08,  avg # of iterations =  2.0

     negative rho (up, down):  6.032E-04 0.000E+00

     total cpu time spent up to now is      345.0 secs

     total energy              =   -2326.92270873 Ry
     estimated scf accuracy    <       0.00000366 Ry

     iteration # 18     ecut=    80.00 Ry     beta= 0.30
     Davidson diagonalization with overlap
     ethr =  3.97E-09,  avg # of iterations =  2.2

     negative rho (up, down):  2.915E-04 0.000E+00

     total cpu time spent up to now is      363.7 secs

     total energy              =   -2326.92270959 Ry
     estimated scf accuracy    <       0.00000061 Ry

     iteration # 19     ecut=    80.00 Ry     beta= 0.30
     Davidson diagonalization with overlap
     ethr =  6.62E-10,  avg # of iterations =  2.4

     negative rho (up, down):  2.221E-04 0.000E+00

     total cpu time spent up to now is      385.5 secs

     total energy              =   -2326.92271073 Ry
     estimated scf accuracy    <       0.00000016 Ry

     iteration # 20     ecut=    80.00 Ry     beta= 0.30
     Davidson diagonalization with overlap
     ethr =  1.69E-10,  avg # of iterations =  2.4

     negative rho (up, down):  2.044E-04 0.000E+00

     total cpu time spent up to now is      404.8 secs

     End of self-consistent calculation

          k = 0.0000 0.0000 0.0000 ( 37787 PWs)   bands (ev):

   -61.8980 -61.8972 -48.2934 -48.2934 -48.2923 -48.2923 -48.2920 -48.2920
   -48.2910 -48.2910 -48.2480 -48.2480 -48.2468 -48.2468 -48.2466 -48.2466
   -48.2455 -48.2455 -48.2294 -48.2280 -48.2280 -48.2268 -36.0164 -36.0154
   -35.9012 -35.9012 -35.8999 -35.8999 -15.2957 -15.2922 -14.4774 -14.4759
    -6.4395  -6.4352  -3.3626  -3.3625  -3.3564  -3.3564  -3.3489  -3.3285
    -1.6034  -1.5819  -1.0662  -1.0662  -1.0633  -1.0633   0.2275   0.2275
     0.2303   0.2304   2.7397   2.9461   2.9461   2.9482   2.9482

          k = 0.0000 0.0722 0.0000 ( 37755 PWs)   bands (ev):

   -61.8971 -61.8962 -48.2934 -48.2932 -48.2923 -48.2922 -48.2920 -48.2918
   -48.2910 -48.2908 -48.2481 -48.2480 -48.2468 -48.2468 -48.2467 -48.2466
   -48.2456 -48.2455 -48.2293 -48.2279 -48.2279 -48.2267 -36.0142 -36.0131
   -35.9118 -35.9105 -35.9036 -35.9023 -15.2389 -15.2355 -14.4480 -14.4464
    -6.3617  -6.3575  -3.8372  -3.8293  -3.3306  -3.3244  -2.9411  -2.9278
    -1.6391  -1.6221  -1.2565  -1.2527  -1.2132  -1.2101   0.1168   0.1236
     0.3405   0.3430   2.5811   2.6341   2.8926   2.8975   2.8995

          k = 0.0000 0.1443 0.0000 ( 37697 PWs)   bands (ev):

   -61.8943 -61.8935 -48.2934 -48.2927 -48.2923 -48.2919 -48.2916 -48.2913
   -48.2910 -48.2903 -48.2482 -48.2481 -48.2470 -48.2469 -48.2468 -48.2467
   -48.2457 -48.2456 -48.2290 -48.2277 -48.2276 -48.2265 -36.0078 -36.0068
   -35.9419 -35.9406 -35.9105 -35.9092 -15.0726 -15.0692 -14.3618 -14.3601
    -6.1365  -6.1322  -4.3218  -4.3155  -3.2552  -3.2491  -2.7209  -2.7095
    -2.0804  -2.0757  -1.5007  -1.4972  -1.4646  -1.4515  -0.0066   0.0076
     0.5310   0.5329   1.9993   2.0468   2.7977   2.7996   3.1443

          k = 0.0000 0.2165 0.0000 ( 37653 PWs)   bands (ev):

   -61.8902 -61.8893 -48.2933 -48.2923 -48.2919 -48.2919 -48.2910 -48.2908
   -48.2905 -48.2895 -48.2485 -48.2482 -48.2472 -48.2472 -48.2469 -48.2468
   -48.2459 -48.2457 -48.2286 -48.2273 -48.2272 -48.2261 -35.9986 -35.9976
   -35.9864 -35.9850 -35.9209 -35.9196 -14.8096 -14.8063 -14.2254 -14.2235
    -5.7958  -5.7915  -4.7506  -4.7452  -3.2595  -3.2563  -3.2036  -3.1976
    -2.4415  -2.4312  -1.7243  -1.7206  -1.5630  -1.5542  -0.0395  -0.0226
     0.6374   0.6387   1.6331   1.6912   2.7322   2.7340   3.5193

          k = 0.0000 0.2887 0.0000 ( 37721 PWs)   bands (ev):

   -61.8854 -61.8845 -48.2933 -48.2923 -48.2919 -48.2910 -48.2909 -48.2899
   -48.2896 -48.2886 -48.2489 -48.2483 -48.2475 -48.2474 -48.2470 -48.2469
   -48.2462 -48.2458 -48.2282 -48.2268 -48.2268 -48.2256 -36.0394 -36.0380
   -35.9867 -35.9857 -35.9331 -35.9318 -14.4764 -14.4732 -14.0476 -14.0454
    -5.4841  -5.4799  -4.9902  -4.9856  -4.2814  -4.2780  -3.2579  -3.2523
    -2.6250  -2.6183  -1.8134  -1.8092  -1.7678  -1.7639   0.0419   0.0586
     0.6424   0.6435   1.7334   1.8032   2.7334   2.7353   3.9937

          k = 0.0000 0.3608 0.0000 ( 37749 PWs)   bands (ev):

   -61.8805 -61.8796 -48.2933 -48.2922 -48.2919 -48.2909 -48.2901 -48.2890
   -48.2887 -48.2877 -48.2492 -48.2484 -48.2479 -48.2476 -48.2471 -48.2471
   -48.2464 -48.2458 -48.2277 -48.2264 -48.2263 -48.2252 -36.0914 -36.0900
   -35.9754 -35.9744 -35.9453 -35.9439 -14.1281 -14.1249 -13.8282 -13.8257
    -5.6007  -5.5963  -5.2387  -5.2356  -4.7260  -4.7222  -3.4065  -3.4010
    -2.9833  -2.9798  -2.0778  -2.0750  -1.6625  -1.6586   0.3033   0.3168
     0.6193   0.6205   2.1504   2.2238   2.7700   2.7721   4.5373

          k = 0.0000 0.4330 0.0000 ( 37785 PWs)   bands (ev):

   -61.8764 -61.8755 -48.2934 -48.2922 -48.2919 -48.2908 -48.2893 -48.2883
   -48.2879 -48.2869 -48.2496 -48.2486 -48.2482 -48.2478 -48.2472 -48.2471
   -48.2465 -48.2459 -48.2273 -48.2260 -48.2260 -48.2248 -36.1351 -36.1337
   -35.9657 -35.9647 -35.9556 -35.9542 -13.8642 -13.8609 -13.5492 -13.5467
    -6.2011  -6.1972  -5.5786  -5.5753  -4.5360  -4.5332  -3.5656  -3.5603
    -3.2370  -3.2341  -2.2507  -2.2489  -1.5287  -1.5251   0.6337   0.6354
     0.6709   0.6798   2.6723   2.7357   2.8065   2.8088   4.9581

          k = 0.0000 0.5052 0.0000 ( 37822 PWs)   bands (ev):

   -61.8736 -61.8728 -48.2934 -48.2921 -48.2920 -48.2908 -48.2888 -48.2877
   -48.2874 -48.2864 -48.2498 -48.2486 -48.2484 -48.2479 -48.2473 -48.2472
   -48.2466 -48.2460 -48.2271 -48.2257 -48.2257 -48.2246 -36.1642 -36.1627
   -35.9624 -35.9611 -35.9593 -35.9583 -13.7191 -13.7155 -13.2874 -13.2849
    -6.7586  -6.7548  -5.5998  -5.5972  -4.7029  -4.7005  -3.6777  -3.6724
    -3.1165  -3.1139  -2.3784  -2.3774  -1.4415  -1.4382   0.6827   0.6850
     1.0147   1.0192   2.8290   2.8315   3.1349   3.1725   4.6407

          k = 0.0000-0.5774 0.0000 ( 37832 PWs)   bands (ev):

   -61.8727 -61.8718 -48.2934 -48.2921 -48.2920 -48.2908 -48.2886 -48.2876
   -48.2872 -48.2863 -48.2499 -48.2486 -48.2485 -48.2479 -48.2473 -48.2472
   -48.2467 -48.2460 -48.2270 -48.2256 -48.2256 -48.2245 -36.1744 -36.1729
   -35.9648 -35.9635 -35.9570 -35.9560 -13.6716 -13.6679 -13.1808 -13.1783
    -6.9638  -6.9600  -5.5702  -5.5682  -4.8457  -4.8431  -3.7174  -3.7121
    -2.9875  -2.9853  -2.4468  -2.4460  -1.4137  -1.4106   0.7103   0.7127
     1.1631   1.1647   2.8363   2.8389   3.3679   3.3829   4.3338

          k = 0.0625 0.1083 0.0000 ( 37709 PWs)   bands (ev):

   -61.8952 -61.8943 -48.2934 -48.2929 -48.2923 -48.2919 -48.2918 -48.2914
   -48.2910 -48.2905 -48.2482 -48.2481 -48.2469 -48.2468 -48.2468 -48.2467
   -48.2457 -48.2456 -48.2291 -48.2277 -48.2277 -48.2266 -36.0099 -36.0088
   -35.9318 -35.9305 -35.9086 -35.9073 -15.1273 -15.1239 -14.3902 -14.3885
    -6.2098  -6.2055  -4.1931  -4.1865  -3.2841  -3.2779  -2.7422  -2.7292
    -1.8800  -1.8752  -1.5012  -1.4974  -1.3881  -1.3769   0.0549   0.0675
     0.4308   0.4327   2.2251   2.2731   2.7497   2.7558   3.0712

          k = 0.0625 0.1804 0.0000 ( 37703 PWs)   bands (ev):

   -61.8918 -61.8909 -48.2933 -48.2923 -48.2922 -48.2919 -48.2912 -48.2910
   -48.2908 -48.2898 -48.2484 -48.2482 -48.2471 -48.2470 -48.2469 -48.2468
   -48.2459 -48.2457 -48.2288 -48.2274 -48.2274 -48.2262 -36.0019 -36.0009
   -35.9685 -35.9671 -35.9181 -35.9168 -14.9122 -14.9089 -14.2790 -14.2772
    -5.9218  -5.9176  -4.6062  -4.6004  -3.2784  -3.2725  -2.8145  -2.8089
    -2.4568  -2.4517  -1.7567  -1.7516  -1.4201  -1.4090   0.0526   0.0677
     0.4302   0.4332   1.9047   1.9576   2.5768   2.5822   3.3837

          k = 0.0625 0.2526 0.0000 ( 37702 PWs)   bands (ev):

   -61.8873 -61.8864 -48.2933 -48.2922 -48.2919 -48.2914 -48.2909 -48.2903
   -48.2900 -48.2890 -48.2487 -48.2483 -48.2474 -48.2473 -48.2470 -48.2469
   -48.2461 -48.2457 -48.2284 -48.2270 -48.2270 -48.2258 -36.0162 -36.0148
   -35.9913 -35.9903 -35.9305 -35.9291 -14.6121 -14.6088 -14.1230 -14.1209
    -5.5542  -5.5500  -4.9500  -4.9449  -3.8372  -3.8335  -3.2241  -3.2193
    -2.6030  -2.5976  -1.9662  -1.9622  -1.4486  -1.4421  -0.0105   0.0030
     0.5070   0.5149   1.7973   1.8516   2.5433   2.5565   3.8070

          k = 0.0625 0.3248 0.0000 ( 37734 PWs)   bands (ev):

   -61.8825 -61.8816 -48.2933 -48.2921 -48.2918 -48.2908 -48.2905 -48.2895
   -48.2891 -48.2881 -48.2491 -48.2484 -48.2477 -48.2475 -48.2471 -48.2470
   -48.2463 -48.2458 -48.2279 -48.2265 -48.2265 -48.2254 -36.0671 -36.0657
   -35.9800 -35.9790 -35.9438 -35.9425 -14.2637 -14.2605 -13.9295 -13.9271
    -5.4469  -5.4424  -4.9259  -4.9223  -4.7816  -4.7778  -3.4635  -3.4590
    -2.7276  -2.7239  -2.2805  -2.2780  -1.4364  -1.4326   0.0413   0.0529
     0.6568   0.6627   1.9361   1.9869   2.6293   2.6544   4.3204

          k = 0.0625 0.3969 0.0000 ( 37770 PWs)   bands (ev):

   -61.8780 -61.8771 -48.2932 -48.2921 -48.2918 -48.2908 -48.2897 -48.2886
   -48.2883 -48.2873 -48.2494 -48.2485 -48.2481 -48.2477 -48.2472 -48.2472
   -48.2465 -48.2459 -48.2275 -48.2261 -48.2261 -48.2250 -36.1139 -36.1124
   -35.9696 -35.9686 -35.9561 -35.9548 -13.9476 -13.9443 -13.6853 -13.6827
    -5.8169  -5.8128  -5.4825  -5.4791  -4.5603  -4.5569  -3.7085  -3.7044
    -2.9909  -2.9885  -2.4986  -2.4963  -1.3677  -1.3648   0.2407   0.2479
     0.8146   0.8190   2.2350   2.2657   2.7929   2.8335   4.8609

          k = 0.0625 0.4691 0.0000 ( 37798 PWs)   bands (ev):

   -61.8745 -61.8737 -48.2932 -48.2920 -48.2918 -48.2907 -48.2891 -48.2880
   -48.2877 -48.2867 -48.2497 -48.2486 -48.2483 -48.2478 -48.2473 -48.2472
   -48.2466 -48.2460 -48.2272 -48.2258 -48.2258 -48.2246 -36.1494 -36.1479
   -35.9659 -35.9646 -35.9612 -35.9602 -13.7501 -13.7466 -13.3997 -13.3971
    -6.4718  -6.4680  -5.5889  -5.5859  -4.5545  -4.5520  -3.8024  -3.7979
    -3.1057  -3.1032  -2.6038  -2.6020  -1.3274  -1.3250   0.4849   0.4882
     0.9973   1.0008   2.4735   2.4818   3.0494   3.0910   5.0380

          k = 0.0625 0.5413 0.0000 ( 37791 PWs)   bands (ev):

   -61.8727 -61.8718 -48.2933 -48.2920 -48.2918 -48.2907 -48.2888 -48.2877
   -48.2873 -48.2864 -48.2498 -48.2487 -48.2485 -48.2479 -48.2473 -48.2472
   -48.2466 -48.2460 -48.2270 -48.2256 -48.2256 -48.2245 -36.1685 -36.1671
   -35.9708 -35.9695 -35.9570 -35.9560 -13.6569 -13.6533 -13.2045 -13.2020
    -6.8587  -6.8549  -5.5713  -5.5690  -4.7643  -4.7617  -3.8199  -3.8152
    -2.9923  -2.9900  -2.6760  -2.6746  -1.3284  -1.3262   0.6659   0.6682
     1.1277   1.1297   2.5746   2.5771   3.3048   3.3251   4.6133

          k = 0.1250 0.2165 0.0000 ( 37731 PWs)   bands (ev):

   -61.8880 -61.8871 -48.2932 -48.2922 -48.2918 -48.2916 -48.2909 -48.2905
   -48.2902 -48.2892 -48.2487 -48.2482 -48.2473 -48.2472 -48.2470 -48.2469
   -48.2460 -48.2458 -48.2284 -48.2271 -48.2270 -48.2259 -36.0063 -36.0050
   -35.9931 -35.9921 -35.9310 -35.9297 -14.6587 -14.6554 -14.1489 -14.1468
    -5.5849  -5.5808  -4.9177  -4.9124  -3.6956  -3.6911  -3.0121  -3.0078
    -2.8655  -2.8613  -1.9353  -1.9291  -1.3290  -1.3196   0.0482   0.0544
     0.3033   0.3195   2.1215   2.1809   2.1834   2.1932   3.7485

          k = 0.1250 0.2887 0.0000 ( 37723 PWs)   bands (ev):

   -61.8835 -61.8826 -48.2931 -48.2920 -48.2917 -48.2909 -48.2907 -48.2898
   -48.2894 -48.2885 -48.2490 -48.2484 -48.2476 -48.2474 -48.2471 -48.2470
   -48.2462 -48.2459 -48.2280 -48.2266 -48.2266 -48.2255 -36.0499 -36.0485
   -35.9828 -35.9818 -35.9470 -35.9457 -14.3362 -14.3330 -13.9817 -13.9793
    -5.2709  -5.2665  -5.0819  -5.0775  -4.4634  -4.4596  -3.4635  -3.4601
    -2.9552  -2.9514  -2.2017  -2.1984  -1.2007  -1.1940  -0.1661  -0.1570
     0.5979   0.6107   1.8659   1.8768   2.4341   2.5001   4.2142

          k = 0.1250 0.3608 0.0000 ( 37761 PWs)   bands (ev):

   -61.8790 -61.8782 -48.2930 -48.2919 -48.2916 -48.2905 -48.2901 -48.2891
   -48.2887 -48.2877 -48.2493 -48.2485 -48.2480 -48.2476 -48.2472 -48.2471
   -48.2464 -48.2460 -48.2276 -48.2262 -48.2262 -48.2251 -36.0928 -36.0914
   -35.9730 -35.9719 -35.9627 -35.9614 -13.9961 -13.9929 -13.7807 -13.7781
    -5.4737  -5.4693  -5.2633  -5.2598  -4.6676  -4.6638  -3.8513  -3.8479
    -3.0544  -3.0513  -2.6311  -2.6292  -1.0683  -1.0640  -0.1302  -0.1223
     0.8838   0.8909   1.7840   1.7952   2.7453   2.8091   4.7508

          k = 0.1250 0.4330 0.0000 ( 37768 PWs)   bands (ev):

   -61.8752 -61.8743 -48.2929 -48.2917 -48.2915 -48.2904 -48.2895 -48.2884
   -48.2881 -48.2871 -48.2496 -48.2487 -48.2482 -48.2478 -48.2473 -48.2473
   -48.2465 -48.2460 -48.2272 -48.2259 -48.2259 -48.2247 -36.1288 -36.1274
   -35.9781 -35.9767 -35.9627 -35.9617 -13.7461 -13.7428 -13.5176 -13.5149
    -6.0633  -6.0594  -5.5224  -5.5188  -4.3965  -4.3937  -4.0785  -4.0748
    -3.1659  -3.1633  -2.9796  -2.9776  -1.0351  -1.0328   0.1148   0.1202
     1.0765   1.0797   1.8956   1.9042   3.0352   3.0829   5.2230

          k = 0.1250 0.5052 0.0000 ( 37794 PWs)   bands (ev):

   -61.8727 -61.8718 -48.2929 -48.2916 -48.2914 -48.2903 -48.2891 -48.2880
   -48.2877 -48.2867 -48.2497 -48.2488 -48.2484 -48.2479 -48.2474 -48.2473
   -48.2466 -48.2461 -48.2270 -48.2256 -48.2256 -48.2245 -36.1527 -36.1513
   -35.9871 -35.9858 -35.9570 -35.9561 -13.6142 -13.6107 -13.2686 -13.2660
    -6.5665  -6.5627  -5.5555  -5.5526  -4.5691  -4.5664  -4.0302  -4.0263
    -3.2472  -3.2449  -3.0435  -3.0413  -1.0919  -1.0905   0.4542   0.4572
     1.1267   1.1284   2.0648   2.0695   3.2368   3.2608   5.1838

          k = 0.1250 0.5774 0.0000 ( 37780 PWs)   bands (ev):

   -61.8718 -61.8709 -48.2929 -48.2916 -48.2914 -48.2903 -48.2889 -48.2879
   -48.2875 -48.2866 -48.2498 -48.2488 -48.2484 -48.2479 -48.2475 -48.2473
   -48.2466 -48.2461 -48.2269 -48.2256 -48.2255 -48.2244 -36.1611 -36.1596
   -35.9904 -35.9890 -35.9550 -35.9540 -13.5706 -13.5670 -13.1693 -13.1667
    -6.7500  -6.7463  -5.5475  -5.5449  -4.6837  -4.6809  -4.0267  -4.0227
    -3.2764  -3.2742  -2.9980  -2.9959  -1.1308  -1.1297   0.6567   0.6585
     1.0783   1.0796   2.1494   2.1514   3.3085   3.3203   4.9852

          k = 0.1875 0.3248 0.0000 ( 37725 PWs)   bands (ev):

   -61.8794 -61.8785 -48.2929 -48.2917 -48.2914 -48.2904 -48.2903 -48.2892
   -48.2889 -48.2879 -48.2493 -48.2485 -48.2479 -48.2476 -48.2472 -48.2471
   -48.2463 -48.2460 -48.2276 -48.2263 -48.2262 -48.2251 -36.0832 -36.0818
   -35.9751 -35.9740 -35.9663 -35.9650 -14.0114 -14.0083 -13.8154 -13.8128
    -5.3414  -5.3368  -5.0947  -5.0909  -4.7566  -4.7529  -3.8544  -3.8516
    -3.3353  -3.3313  -2.5117  -2.5101  -0.9008  -0.8951  -0.3098  -0.3021
     0.8808   0.8901   1.6011   1.6054   2.7302   2.8008   4.7086

          k = 0.1875 0.3969 0.0000 ( 37753 PWs)   bands (ev):

   -61.8756 -61.8747 -48.2926 -48.2914 -48.2912 -48.2901 -48.2899 -48.2888
   -48.2884 -48.2875 -48.2495 -48.2486 -48.2481 -48.2478 -48.2473 -48.2473
   -48.2465 -48.2461 -48.2273 -48.2259 -48.2259 -48.2247 -36.1120 -36.1106
   -35.9904 -35.9890 -35.9635 -35.9626 -13.7085 -13.7053 -13.6180 -13.6152
    -5.6944  -5.6906  -5.4451  -5.4410  -4.3558  -4.3524  -4.2063  -4.2034
    -3.6609  -3.6574  -2.9103  -2.9090  -0.6933  -0.6897  -0.2407  -0.2351
     1.1050   1.1096   1.5192   1.5256   3.0351   3.0865   5.2362

          k = 0.1875 0.4691 0.0000 ( 37759 PWs)   bands (ev):

   -61.8727 -61.8718 -48.2924 -48.2912 -48.2910 -48.2898 -48.2895 -48.2885
   -48.2881 -48.2871 -48.2496 -48.2488 -48.2483 -48.2479 -48.2475 -48.2474
   -48.2466 -48.2461 -48.2270 -48.2256 -48.2256 -48.2245 -36.1329 -36.1315
   -36.0074 -36.0061 -35.9571 -35.9561 -13.5481 -13.5447 -13.3557 -13.3529
    -6.1786  -6.1749  -5.5123  -5.5087  -4.4281  -4.4251  -4.1195  -4.1165
    -3.8864  -3.8836  -3.1803  -3.1786  -0.7439  -0.7422   0.1025   0.1058
     1.1468   1.1487   1.6700   1.6769   3.2160   3.2404   5.5470

          k = 0.1875 0.5413 0.0000 ( 37793 PWs)   bands (ev):

   -61.8711 -61.8702 -48.2923 -48.2910 -48.2908 -48.2897 -48.2894 -48.2883
   -48.2879 -48.2870 -48.2497 -48.2490 -48.2483 -48.2480 -48.2476 -48.2474
   -48.2467 -48.2461 -48.2269 -48.2255 -48.2255 -48.2243 -36.1438 -36.1424
   -36.0171 -36.0157 -35.9535 -35.9525 -13.4705 -13.4670 -13.1862 -13.1834
    -6.4560  -6.4523  -5.5408  -5.5376  -4.5217  -4.5186  -4.1622  -4.1591
    -3.9610  -3.9588  -3.2014  -3.1995  -0.8315  -0.8305   0.4704   0.4719
     0.9997   1.0011   1.8825   1.8865   3.2208   3.2300   5.5607

          k = 0.2500 0.4330 0.0000 ( 37711 PWs)   bands (ev):

   -61.8727 -61.8718 -48.2921 -48.2909 -48.2907 -48.2897 -48.2896 -48.2887
   -48.2883 -48.2874 -48.2496 -48.2488 -48.2482 -48.2479 -48.2475 -48.2474
   -48.2467 -48.2461 -48.2270 -48.2256 -48.2256 -48.2245 -36.1225 -36.1211
   -36.0180 -36.0167 -35.9571 -35.9561 -13.4862 -13.4830 -13.4260 -13.4231
    -5.9581  -5.9544  -5.4809  -5.4769  -4.4096  -4.4071  -4.2497  -4.2465
    -4.0452  -4.0420  -3.2760  -3.2747  -0.3343  -0.3306  -0.3120  -0.3103
     1.1418   1.1443   1.5447   1.5521   3.2147   3.2388   5.6707

          k = 0.2500 0.5052 0.0000 ( 37776 PWs)   bands (ev):

   -61.8707 -61.8698 -48.2917 -48.2905 -48.2903 -48.2898 -48.2892 -48.2887
   -48.2883 -48.2874 -48.2496 -48.2490 -48.2482 -48.2480 -48.2476 -48.2474
   -48.2468 -48.2461 -48.2268 -48.2255 -48.2255 -48.2243 -36.1250 -36.1236
   -36.0411 -36.0397 -35.9526 -35.9517 -13.3765 -13.3732 -13.2390 -13.2361
    -6.1058  -6.1022  -5.5325  -5.5287  -4.6692  -4.6657  -4.3868  -4.3845
    -3.9711  -3.9688  -3.5139  -3.5122  -0.4355  -0.4341   0.0606   0.0616
     0.9629   0.9643   1.8363   1.8438   3.1533   3.1587   5.7197

          k = 0.2500 0.5774 0.0000 ( 37791 PWs)   bands (ev):

   -61.8700 -61.8692 -48.2916 -48.2904 -48.2902 -48.2898 -48.2890 -48.2888
   -48.2884 -48.2874 -48.2496 -48.2491 -48.2482 -48.2481 -48.2477 -48.2474
   -48.2469 -48.2461 -48.2268 -48.2254 -48.2254 -48.2243 -36.1245 -36.1230
   -36.0506 -36.0493 -35.9511 -35.9501 -13.3379 -13.3345 -13.1692 -13.1662
    -6.1487  -6.1451  -5.5627  -5.5590  -4.8222  -4.8186  -4.2071  -4.2049
    -4.1873  -4.1854  -3.5147  -3.5128  -0.4861  -0.4852   0.3195   0.3197
     0.7556   0.7576   2.0575   2.0610   3.0173   3.0206   5.6757

          k = 0.3125 0.5413 0.0000 ( 37789 PWs)   bands (ev):

   -61.8697 -61.8688 -48.2911 -48.2903 -48.2898 -48.2897 -48.2891 -48.2889
   -48.2885 -48.2878 -48.2495 -48.2492 -48.2482 -48.2481 -48.2478 -48.2474
   -48.2469 -48.2461 -48.2267 -48.2254 -48.2254 -48.2242 -36.1070 -36.1055
   -36.0731 -36.0717 -35.9502 -35.9493 -13.2585 -13.2551 -13.1966 -13.1935
    -5.8445  -5.8409  -5.5725  -5.5685  -5.2618  -5.2583  -4.2201  -4.2182
    -3.8822  -3.8798  -3.8795  -3.8782  -0.1487  -0.1474   0.0288   0.0295
     0.6560   0.6582   2.2640   2.2703   2.8303   2.8336   5.6076

     the Fermi energy is    -0.2977 ev

!    total energy              =   -2326.92271087 Ry
     total all-electron energy =    -35628.670540 Ry
     estimated scf accuracy    <          8.6E-09 Ry
     smearing contrib. (-TS)   =       0.00089704 Ry
     internal energy E=F+TS    =   -2326.92360791 Ry

     The total energy is F=E-TS. E is the sum of the following terms:
     one-electron contribution =  -21876.99816874 Ry
     hartree contribution      =   10926.72150968 Ry
     xc contribution           =    -152.42387071 Ry
     ewald contribution        =    9786.29139626 Ry
     one-center paw contrib.   =   -1010.51447441 Ry

     convergence has been achieved in  20 iterations

     Writing all to output data dir ./tmp/cleave_019/mose2_cleave_019.save/ :
     XML data file, charge density, pseudopotentials, collected wavefunctions

     init_run     :     11.87s CPU     12.06s WALL (       1 calls)
     electrons    :    386.06s CPU    392.58s WALL (       1 calls)

     Called by init_run:
     wfcinit      :      5.49s CPU      5.52s WALL (       1 calls)
     potinit      :      5.73s CPU      5.77s WALL (       1 calls)
     hinit0       :      0.05s CPU      0.06s WALL (       1 calls)

     Called by electrons:
     c_bands      :    322.36s CPU    323.67s WALL (      21 calls)
     sum_band     :     42.30s CPU     44.63s WALL (      21 calls)
     v_of_rho     :     13.49s CPU     14.26s WALL (      21 calls)
     newd         :      7.53s CPU      9.72s WALL (      21 calls)
     PAW_pot      :      1.28s CPU      1.32s WALL (      21 calls)
     mix_rho      :      4.98s CPU      4.99s WALL (      21 calls)
     vdW_kernel   :      5.27s CPU      5.28s WALL (       1 calls)

     Called by c_bands:
     init_us_2    :      3.07s CPU      3.08s WALL (    1290 calls)
     cegterg      :    316.51s CPU    317.77s WALL (     630 calls)

     Called by *egterg:
     cdiaghg      :      9.66s CPU      9.68s WALL (    2492 calls)
     h_psi        :    144.48s CPU    145.07s WALL (    2552 calls)
     s_psi        :     33.24s CPU     33.27s WALL (    2552 calls)
     g_psi        :      0.64s CPU      0.64s WALL (    1892 calls)

     Called by h_psi:
     h_psi:calbec :     40.61s CPU     40.78s WALL (    2552 calls)
     vloc_psi     :     61.65s CPU     62.03s WALL (    2552 calls)
                                        0.00s GPU  (    2552 calls)
     add_vuspsi   :     41.59s CPU     41.63s WALL (    2552 calls)

     General routines
     calbec       :     58.15s CPU     58.37s WALL (    3182 calls)
     fft          :      4.32s CPU      4.38s WALL (    1322 calls)
     ffts         :      1.72s CPU      1.72s WALL (    2379 calls)
     fftw         :     65.62s CPU     66.00s WALL (  190968 calls)
     interpolate  :      0.09s CPU      0.09s WALL (      21 calls)

     Parallel routines

     PWSCF        :   6m38.65s CPU   6m45.60s WALL


   This run was terminated on:  11:21: 3  20Jun2026            

=------------------------------------------------------------------------------=
   JOB DONE.
=------------------------------------------------------------------------------=
Note: The following floating-point exceptions are signalling: IEEE_UNDERFLOW_FLAG IEEE_DENORMAL
Note: The following floating-point exceptions are signalling: IEEE_UNDERFLOW_FLAG IEEE_DENORMAL
Note: The following floating-point exceptions are signalling: IEEE_UNDERFLOW_FLAG IEEE_DENORMAL
Note: The following floating-point exceptions are signalling: IEEE_UNDERFLOW_FLAG IEEE_DENORMAL
Note: The following floating-point exceptions are signalling: IEEE_UNDERFLOW_FLAG IEEE_DENORMAL
Note: The following floating-point exceptions are signalling: IEEE_UNDERFLOW_FLAG IEEE_DENORMAL
Note: The following floating-point exceptions are signalling: IEEE_UNDERFLOW_FLAG IEEE_DENORMAL
Note: The following floating-point exceptions are signalling: IEEE_UNDERFLOW_FLAG IEEE_DENORMAL
Note: The following floating-point exceptions are signalling: IEEE_UNDERFLOW_FLAG IEEE_DENORMAL
Note: The following floating-point exceptions are signalling: IEEE_UNDERFLOW_FLAG IEEE_DENORMAL
Note: The following floating-point exceptions are signalling: IEEE_UNDERFLOW_FLAG IEEE_DENORMAL
Note: The following floating-point exceptions are signalling: IEEE_UNDERFLOW_FLAG IEEE_DENORMAL
Note: The following floating-point exceptions are signalling: IEEE_UNDERFLOW_FLAG IEEE_DENORMAL
Note: The following floating-point exceptions are signalling: IEEE_UNDERFLOW_FLAG IEEE_DENORMAL
Note: The following floating-point exceptions are signalling: IEEE_UNDERFLOW_FLAG IEEE_DENORMAL
Note: The following floating-point exceptions are signalling: IEEE_UNDERFLOW_FLAG IEEE_DENORMAL
Note: The following floating-point exceptions are signalling: IEEE_UNDERFLOW_FLAG IEEE_DENORMAL
Note: The following floating-point exceptions are signalling: IEEE_UNDERFLOW_FLAG IEEE_DENORMAL
Note: The following floating-point exceptions are signalling: IEEE_UNDERFLOW_FLAG IEEE_DENORMAL
Note: The following floating-point exceptions are signalling: IEEE_UNDERFLOW_FLAG IEEE_DENORMAL
Note: The following floating-point exceptions are signalling: IEEE_UNDERFLOW_FLAG IEEE_DENORMAL
Note: The following floating-point exceptions are signalling: IEEE_UNDERFLOW_FLAG IEEE_DENORMAL
Note: The following floating-point exceptions are signalling: IEEE_UNDERFLOW_FLAG IEEE_DENORMAL
Note: The following floating-point exceptions are signalling: IEEE_UNDERFLOW_FLAG IEEE_DENORMAL
