
     Program PWSCF v.7.5 starts on 20Jun2026 at  9:17:16 

     This program is part of the open-source Quantum ESPRESSO suite
     for quantum simulation of materials; please cite
         "P. Giannozzi et al., J. Phys.:Condens. Matter 21 395502 (2009);
         "P. Giannozzi et al., J. Phys.:Condens. Matter 29 465901 (2017);
         "P. Giannozzi et al., J. Chem. Phys. 152 154105 (2020);
          URL http://www.quantum-espresso.org", 
     in publications or presentations arising from this work. More details at
     http://www.quantum-espresso.org/quote

     Parallel version (MPI), running on    24 processors

     MPI processes distributed on     1 nodes
     5471 MiB available memory on the printing compute node when the environment starts

     Waiting for input...
     Reading input from standard input

     Current dimensions of program PWSCF are:
     Max number of different atomic species (ntypx) = 10
     Max number of k-points (npk) =  40000
     Max angular momentum in pseudopotentials (lmaxx) =  4
     file Mo.pbe-spn-kjpaw_psl.1.0.0.UPF: wavefunction(s)  4S 4D renormalized
     file Se.pbe-dn-kjpaw_psl.1.0.0.UPF: wavefunction(s)  4S 4P 3D renormalized

     IMPORTANT: XC functional enforced from input :
     Exchange-correlation= VDW-DF2-B86R
                           (   1   4  26   0   2   0   0)
     Any further DFT definition will be discarded
     Please, verify this is what you really want


     R & G space division:  proc/nbgrp/npool/nimage =      24
     Subspace diagonalization in iterative solution of the eigenvalue problem:
     a serial algorithm will be used


     Parallelization info
     --------------------
     sticks:   dense  smooth     PW     G-vecs:    dense   smooth      PW
     Min          69      35     10                35537    12585    1924
     Max          70      36     11                35620    12648    1981
     Sum        1675     847    241               853823   302525   46513

     Using Slab Decomposition



     bravais-lattice index     =            4
     lattice parameter (alat)  =       6.1794  a.u.
     unit-cell volume          =    3124.5879 (a.u.)^3
     number of atoms/cell      =            6
     number of atomic types    =            2
     number of electrons       =        92.00
     number of Kohn-Sham states=           55
     kinetic-energy cutoff     =      80.0000  Ry
     charge density cutoff     =     640.0000  Ry
     scf convergence threshold =      1.0E-08
     mixing beta               =       0.3000
     number of iterations used =            8  local-TF  mixing
     Exchange-correlation= VDW-DF2-B86R
                           (   1   4  26   0   2   0   0)

     celldm(1)=   6.179404  celldm(2)=   0.000000  celldm(3)=  15.290520
     celldm(4)=   0.000000  celldm(5)=   0.000000  celldm(6)=   0.000000

     crystal axes: (cart. coord. in units of alat)
               a(1) = (   1.000000   0.000000   0.000000 )  
               a(2) = (  -0.500000   0.866025   0.000000 )  
               a(3) = (   0.000000   0.000000  15.290520 )  

     reciprocal axes: (cart. coord. in units 2 pi/alat)
               b(1) = (  1.000000  0.577350 -0.000000 )  
               b(2) = (  0.000000  1.154701  0.000000 )  
               b(3) = (  0.000000 -0.000000  0.065400 )  


     PseudoPot. # 1 for Mo read from file:
     ./pseudo/Mo.pbe-spn-kjpaw_psl.1.0.0.UPF
     MD5 check sum: 4396e0c640fcce5c25f020efccf1ab12
     Pseudo is Projector augmented-wave + core cor, Zval = 14.0
     Generated using &quot;atomic&quot; code by A. Dal Corso  v.6.3
     Shape of augmentation charge: PSQ
     Using radial grid of 1229 points,  6 beta functions with: 
                l(1) =   0
                l(2) =   0
                l(3) =   1
                l(4) =   1
                l(5) =   2
                l(6) =   2
     Q(r) pseudized with 0 coefficients 


     PseudoPot. # 2 for Se read from file:
     ./pseudo/Se.pbe-dn-kjpaw_psl.1.0.0.UPF
     MD5 check sum: ac240dd2bae32a30e0bf3a38df9c8785
     Pseudo is Projector augmented-wave + core cor, Zval = 16.0
     Generated using &quot;atomic&quot; code by A. Dal Corso  v.6.3
     Shape of augmentation charge: PSQ
     Using radial grid of 1211 points,  6 beta functions with: 
                l(1) =   0
                l(2) =   0
                l(3) =   1
                l(4) =   1
                l(5) =   2
                l(6) =   2
     Q(r) pseudized with 0 coefficients 


     atomic species   valence    mass     pseudopotential
     Mo               14.00    95.96000     Mo( 1.00)
     Se               16.00    78.96000     Se( 1.00)

      6 Sym. Ops. (no inversion) found



   Cartesian axes

     site n.     atom                  positions (alat units)
         1        Se     tau(   1) = (  -0.0000005   0.5773506   6.1238532  )
         2        Mo     tau(   2) = (   0.0000000   0.0000000   6.6502752  )
         3        Se     tau(   3) = (   0.5000005   0.2886748   7.1775994  )
         4        Se     tau(   4) = (  -0.0000005   0.5773506   8.3569878  )
         5        Mo     tau(   5) = (   0.5000005   0.2886748   8.8841743  )
         6        Se     tau(   6) = (   0.0000000   0.0000000   9.4113150  )

     number of k points=    30  Methfessel-Paxton smearing, width (Ry)=  0.0200
                       cart. coord. in units 2pi/alat
        k(    1) = (   0.0000000   0.0000000   0.0000000), wk =   0.0078125
        k(    2) = (   0.0000000   0.0721688   0.0000000), wk =   0.0468750
        k(    3) = (   0.0000000   0.1443376   0.0000000), wk =   0.0468750
        k(    4) = (   0.0000000   0.2165064   0.0000000), wk =   0.0468750
        k(    5) = (   0.0000000   0.2886751   0.0000000), wk =   0.0468750
        k(    6) = (   0.0000000   0.3608439   0.0000000), wk =   0.0468750
        k(    7) = (   0.0000000   0.4330127   0.0000000), wk =   0.0468750
        k(    8) = (   0.0000000   0.5051815   0.0000000), wk =   0.0468750
        k(    9) = (   0.0000000  -0.5773503   0.0000000), wk =   0.0234375
        k(   10) = (   0.0625000   0.1082532   0.0000000), wk =   0.0468750
        k(   11) = (   0.0625000   0.1804220   0.0000000), wk =   0.0937500
        k(   12) = (   0.0625000   0.2525907   0.0000000), wk =   0.0937500
        k(   13) = (   0.0625000   0.3247595   0.0000000), wk =   0.0937500
        k(   14) = (   0.0625000   0.3969283   0.0000000), wk =   0.0937500
        k(   15) = (   0.0625000   0.4690971   0.0000000), wk =   0.0937500
        k(   16) = (   0.0625000   0.5412659   0.0000000), wk =   0.0937500
        k(   17) = (   0.1250000   0.2165064   0.0000000), wk =   0.0468750
        k(   18) = (   0.1250000   0.2886751   0.0000000), wk =   0.0937500
        k(   19) = (   0.1250000   0.3608439   0.0000000), wk =   0.0937500
        k(   20) = (   0.1250000   0.4330127   0.0000000), wk =   0.0937500
        k(   21) = (   0.1250000   0.5051815   0.0000000), wk =   0.0937500
        k(   22) = (   0.1250000   0.5773503   0.0000000), wk =   0.0468750
        k(   23) = (   0.1875000   0.3247595   0.0000000), wk =   0.0468750
        k(   24) = (   0.1875000   0.3969283   0.0000000), wk =   0.0937500
        k(   25) = (   0.1875000   0.4690971   0.0000000), wk =   0.0937500
        k(   26) = (   0.1875000   0.5412659   0.0000000), wk =   0.0937500
        k(   27) = (   0.2500000   0.4330127   0.0000000), wk =   0.0468750
        k(   28) = (   0.2500000   0.5051815   0.0000000), wk =   0.0937500
        k(   29) = (   0.2500000   0.5773503   0.0000000), wk =   0.0468750
        k(   30) = (   0.3125000   0.5412659   0.0000000), wk =   0.0468750

     Dense  grid:   853823 G-vectors     FFT dimensions: (  50,  50, 768)

     Smooth grid:   302525 G-vectors     FFT dimensions: (  36,  36, 540)

     Estimated max dynamical RAM per process >     171.88 MB

     Estimated total dynamical RAM >       4.03 GB

     Initial potential from superposition of free atoms

     starting charge      91.9979, renormalised to      92.0000

     negative rho (up, down):  1.900E-04 0.000E+00


     %%%%%%%%%%%%%%%%%%%%%%%%%%%%%%%%%%%%%%%%%%%%%%%%%%%%%%%%%%%%%%%%%%%%%%%%
     %                                                                      %
     % You are using vdW-DF, which was implemented by the Thonhauser group. %
     % Please cite the following two papers that made this development      %
     % possible and the two reviews that describe the various versions:     %
     %                                                                      %
     %   T. Thonhauser et al., PRL 115, 136402 (2015).                      %
     %   T. Thonhauser et al., PRB 76, 125112 (2007).                       %
     %   K. Berland et al., Rep. Prog. Phys. 78, 066501 (2015).             %
     %   D.C. Langreth et al., J. Phys.: Condens. Matter 21, 084203 (2009). %
     %                                                                      %
     % If you are calculating stress with vdW-DF, please also cite:         %
     %                                                                      %
     %   R. Sabatini et al., J. Phys.: Condens. Matter 24, 424209 (2012).   %
     %                                                                      %
     %%%%%%%%%%%%%%%%%%%%%%%%%%%%%%%%%%%%%%%%%%%%%%%%%%%%%%%%%%%%%%%%%%%%%%%%

     %%%%%%%%%%%%%%%%%%%%%%%%%%%%%%%%%%%%%%%%%%%%%%%%%%%%%%%%%%%%%%%%%%%%%%%%
     %                                                                      %
     %  vdW-DF NEWS:                                                        %
     %                                                                      %
     %  * vdW-DF3 is now available. DOI: 10.1021/acs.jctc.0c00471           %
     %    use with input_dft = 'vdW-DF3-opt1' or 'vdW-DF3-opt2'             %
     %                                                                      %
     %  * Unscreened and range-separated hybrid vdW-DF-cx functionals       %
     %    DOI: 10.1063/1.4986522 and 10.1088/1361-648X/ac2ad2               %
     %    use with input_dft = 'vdW-DF-cx0'    and 'vdW-DF-ahcx'            %
     %  * Unscreened and range-separated hybrid vdW-DF2-b86r functionals    %
     %    DOI: 10.1063/1.4986522 and DOI: 10.1103/PhysRevX.12.041003        %
     %    use with input_dft = 'vdW-DF2-br0' and 'vdW-DF2-ahbr'             %
     %                                                                      %
     %%%%%%%%%%%%%%%%%%%%%%%%%%%%%%%%%%%%%%%%%%%%%%%%%%%%%%%%%%%%%%%%%%%%%%%%


     Starting wfcs are   56 randomized atomic wfcs
     Checking if some PAW data can be deallocated... 

     total cpu time spent up to now is       12.3 secs

     per-process dynamical memory:    79.7 Mb

     Self-consistent Calculation

     iteration #  1     ecut=    80.00 Ry     beta= 0.30
     Davidson diagonalization with overlap
     ethr =  1.00E-02,  avg # of iterations =  4.3

     Threshold (ethr) on eigenvalues was too large:
     Diagonalizing with lowered threshold

     Davidson diagonalization with overlap
     ethr =  4.36E-04,  avg # of iterations =  2.2

     negative rho (up, down):  6.301E-05 0.000E+00

     total cpu time spent up to now is       50.2 secs

     total energy              =   -2326.97222939 Ry
     estimated scf accuracy    <       0.44854923 Ry

     iteration #  2     ecut=    80.00 Ry     beta= 0.30
     Davidson diagonalization with overlap
     ethr =  4.88E-04,  avg # of iterations =  1.5

     negative rho (up, down):  5.427E-05 0.000E+00

     total cpu time spent up to now is       66.3 secs

     total energy              =   -2326.92681130 Ry
     estimated scf accuracy    <       0.23062822 Ry

     iteration #  3     ecut=    80.00 Ry     beta= 0.30
     Davidson diagonalization with overlap
     ethr =  2.51E-04,  avg # of iterations =  4.6

     negative rho (up, down):  2.736E-05 0.000E+00

     total cpu time spent up to now is       85.1 secs

     total energy              =   -2326.93412353 Ry
     estimated scf accuracy    <       0.02831299 Ry

     iteration #  4     ecut=    80.00 Ry     beta= 0.30
     Davidson diagonalization with overlap
     ethr =  3.08E-05,  avg # of iterations =  7.6

     negative rho (up, down):  1.506E-05 0.000E+00

     total cpu time spent up to now is      106.4 secs

     total energy              =   -2326.93463973 Ry
     estimated scf accuracy    <       0.00846529 Ry

     iteration #  5     ecut=    80.00 Ry     beta= 0.30
     Davidson diagonalization with overlap
     ethr =  9.20E-06,  avg # of iterations =  4.0

     negative rho (up, down):  2.242E-06 0.000E+00

     total cpu time spent up to now is      126.6 secs

     total energy              =   -2326.93439229 Ry
     estimated scf accuracy    <       0.00377522 Ry

     iteration #  6     ecut=    80.00 Ry     beta= 0.30
     Davidson diagonalization with overlap
     ethr =  4.10E-06,  avg # of iterations =  5.1

     negative rho (up, down):  6.855E-07 0.000E+00

     total cpu time spent up to now is      147.2 secs

     total energy              =   -2326.93423700 Ry
     estimated scf accuracy    <       0.00216551 Ry

     iteration #  7     ecut=    80.00 Ry     beta= 0.30
     Davidson diagonalization with overlap
     ethr =  2.35E-06,  avg # of iterations =  4.6

     negative rho (up, down):  7.868E-04 0.000E+00

     total cpu time spent up to now is      166.0 secs

     total energy              =   -2326.93405160 Ry
     estimated scf accuracy    <       0.00196467 Ry

     iteration #  8     ecut=    80.00 Ry     beta= 0.30
     Davidson diagonalization with overlap
     ethr =  2.14E-06,  avg # of iterations =  6.1

     negative rho (up, down):  2.007E-03 0.000E+00

     total cpu time spent up to now is      185.3 secs

     total energy              =   -2326.93400731 Ry
     estimated scf accuracy    <       0.00093203 Ry

     iteration #  9     ecut=    80.00 Ry     beta= 0.30
     Davidson diagonalization with overlap
     ethr =  1.01E-06,  avg # of iterations =  2.7

     negative rho (up, down):  2.012E-03 0.000E+00

     total cpu time spent up to now is      203.0 secs

     total energy              =   -2326.93402599 Ry
     estimated scf accuracy    <       0.00060387 Ry

     iteration # 10     ecut=    80.00 Ry     beta= 0.30
     Davidson diagonalization with overlap
     ethr =  6.56E-07,  avg # of iterations =  6.9

     negative rho (up, down):  5.152E-03 0.000E+00

     total cpu time spent up to now is      223.1 secs

     total energy              =   -2326.93400953 Ry
     estimated scf accuracy    <       0.00041268 Ry

     iteration # 11     ecut=    80.00 Ry     beta= 0.30
     Davidson diagonalization with overlap
     ethr =  4.49E-07,  avg # of iterations =  4.8

     negative rho (up, down):  5.132E-03 0.000E+00

     total cpu time spent up to now is      241.5 secs

     total energy              =   -2326.93393670 Ry
     estimated scf accuracy    <       0.00034152 Ry

     iteration # 12     ecut=    80.00 Ry     beta= 0.30
     Davidson diagonalization with overlap
     ethr =  3.71E-07,  avg # of iterations =  4.0

     negative rho (up, down):  6.022E-03 0.000E+00

     total cpu time spent up to now is      261.9 secs

     total energy              =   -2326.93391448 Ry
     estimated scf accuracy    <       0.00024052 Ry

     iteration # 13     ecut=    80.00 Ry     beta= 0.30
     Davidson diagonalization with overlap
     ethr =  2.61E-07,  avg # of iterations =  4.4

     negative rho (up, down):  5.717E-03 0.000E+00

     total cpu time spent up to now is      279.6 secs

     total energy              =   -2326.93386502 Ry
     estimated scf accuracy    <       0.00016355 Ry

     iteration # 14     ecut=    80.00 Ry     beta= 0.30
     Davidson diagonalization with overlap
     ethr =  1.78E-07,  avg # of iterations =  4.4

     negative rho (up, down):  4.836E-03 0.000E+00

     total cpu time spent up to now is      297.3 secs

     total energy              =   -2326.93388555 Ry
     estimated scf accuracy    <       0.00011225 Ry

     iteration # 15     ecut=    80.00 Ry     beta= 0.30
     Davidson diagonalization with overlap
     ethr =  1.22E-07,  avg # of iterations =  5.3

     negative rho (up, down):  3.883E-03 0.000E+00

     total cpu time spent up to now is      315.1 secs

     total energy              =   -2326.93388894 Ry
     estimated scf accuracy    <       0.00007286 Ry

     iteration # 16     ecut=    80.00 Ry     beta= 0.30
     Davidson diagonalization with overlap
     ethr =  7.92E-08,  avg # of iterations =  4.0

     negative rho (up, down):  3.021E-03 0.000E+00

     total cpu time spent up to now is      332.4 secs

     total energy              =   -2326.93387791 Ry
     estimated scf accuracy    <       0.00004011 Ry

     iteration # 17     ecut=    80.00 Ry     beta= 0.30
     Davidson diagonalization with overlap
     ethr =  4.36E-08,  avg # of iterations =  3.9

     negative rho (up, down):  1.818E-03 0.000E+00

     total cpu time spent up to now is      349.7 secs

     total energy              =   -2326.93391306 Ry
     estimated scf accuracy    <       0.00001139 Ry

     iteration # 18     ecut=    80.00 Ry     beta= 0.30
     Davidson diagonalization with overlap
     ethr =  1.24E-08,  avg # of iterations =  5.1

     negative rho (up, down):  1.183E-03 0.000E+00

     total cpu time spent up to now is      370.0 secs

     total energy              =   -2326.93392995 Ry
     estimated scf accuracy    <       0.00000425 Ry

     iteration # 19     ecut=    80.00 Ry     beta= 0.30
     Davidson diagonalization with overlap
     ethr =  4.62E-09,  avg # of iterations =  5.0

     negative rho (up, down):  5.397E-04 0.000E+00

     total cpu time spent up to now is      389.0 secs

     total energy              =   -2326.93394258 Ry
     estimated scf accuracy    <       0.00000262 Ry

     iteration # 20     ecut=    80.00 Ry     beta= 0.30
     Davidson diagonalization with overlap
     ethr =  2.85E-09,  avg # of iterations =  3.3

     negative rho (up, down):  2.284E-04 0.000E+00

     total cpu time spent up to now is      407.5 secs

     total energy              =   -2326.93394740 Ry
     estimated scf accuracy    <       0.00000101 Ry

     iteration # 21     ecut=    80.00 Ry     beta= 0.30
     Davidson diagonalization with overlap
     ethr =  1.10E-09,  avg # of iterations =  4.0

     negative rho (up, down):  2.263E-04 0.000E+00

     total cpu time spent up to now is      429.4 secs

     total energy              =   -2326.93394706 Ry
     estimated scf accuracy    <       0.00000031 Ry

     iteration # 22     ecut=    80.00 Ry     beta= 0.30
     Davidson diagonalization with overlap
     ethr =  3.41E-10,  avg # of iterations =  2.6

     negative rho (up, down):  2.500E-04 0.000E+00

     total cpu time spent up to now is      449.5 secs

     total energy              =   -2326.93394671 Ry
     estimated scf accuracy    <       0.00000010 Ry

     iteration # 23     ecut=    80.00 Ry     beta= 0.30
     Davidson diagonalization with overlap
     ethr =  1.06E-10,  avg # of iterations =  2.0

     negative rho (up, down):  2.503E-04 0.000E+00

     total cpu time spent up to now is      467.9 secs

     total energy              =   -2326.93394661 Ry
     estimated scf accuracy    <       0.00000004 Ry

     iteration # 24     ecut=    80.00 Ry     beta= 0.30
     Davidson diagonalization with overlap
     ethr =  4.32E-11,  avg # of iterations =  2.0

     negative rho (up, down):  2.473E-04 0.000E+00

     total cpu time spent up to now is      488.3 secs

     total energy              =   -2326.93394637 Ry
     estimated scf accuracy    <       0.00000002 Ry

     iteration # 25     ecut=    80.00 Ry     beta= 0.30
     Davidson diagonalization with overlap
     ethr =  2.25E-11,  avg # of iterations =  2.2

     negative rho (up, down):  2.356E-04 0.000E+00

     total cpu time spent up to now is      506.5 secs

     total energy              =   -2326.93394629 Ry
     estimated scf accuracy    <       0.00000001 Ry

     iteration # 26     ecut=    80.00 Ry     beta= 0.30
     Davidson diagonalization with overlap
     ethr =  1.33E-11,  avg # of iterations =  2.0

     negative rho (up, down):  2.241E-04 0.000E+00

     total cpu time spent up to now is      525.4 secs

     End of self-consistent calculation

          k = 0.0000 0.0000 0.0000 ( 37787 PWs)   bands (ev):

   -61.9002 -61.8965 -48.3003 -48.3003 -48.2995 -48.2995 -48.2954 -48.2954
   -48.2938 -48.2938 -48.2564 -48.2564 -48.2536 -48.2536 -48.2522 -48.2522
   -48.2481 -48.2481 -48.2384 -48.2348 -48.2343 -48.2293 -36.0188 -36.0165
   -35.9033 -35.9033 -35.8984 -35.8984 -15.3168 -15.2798 -14.5067 -14.4539
    -6.5654  -6.3414  -3.6422  -3.3658  -3.3658  -3.3559  -3.3558  -3.0536
    -1.7194  -1.3799  -1.0691  -1.0690  -1.0631  -1.0631   0.2196   0.2196
     0.2352   0.2352   2.9342   2.9342   2.9568   2.9568   3.4285

          k = 0.0000 0.0722 0.0000 ( 37755 PWs)   bands (ev):

   -61.8992 -61.8956 -48.3003 -48.3001 -48.2995 -48.2993 -48.2954 -48.2953
   -48.2938 -48.2936 -48.2565 -48.2565 -48.2537 -48.2537 -48.2523 -48.2522
   -48.2481 -48.2481 -48.2383 -48.2347 -48.2342 -48.2292 -36.0165 -36.0142
   -35.9139 -35.9090 -35.9057 -35.9008 -15.2600 -15.2231 -14.4768 -14.4248
    -6.4880  -6.2640  -3.9807  -3.7351  -3.3339  -3.3239  -3.0849  -2.7587
    -1.7374  -1.4735  -1.2653  -1.2209  -1.2163  -1.2096   0.1078   0.1462
     0.3321   0.3483   2.6257   2.6398   2.8831   2.9103   3.5392

          k = 0.0000 0.1443 0.0000 ( 37697 PWs)   bands (ev):

   -61.8964 -61.8928 -48.3003 -48.2996 -48.2994 -48.2987 -48.2954 -48.2947
   -48.2938 -48.2931 -48.2567 -48.2565 -48.2539 -48.2537 -48.2524 -48.2523
   -48.2483 -48.2482 -48.2380 -48.2344 -48.2340 -48.2290 -36.0101 -36.0079
   -35.9440 -35.9391 -35.9127 -35.9077 -15.0934 -15.0570 -14.3891 -14.3397
    -6.2636  -6.0400  -4.4304  -4.2280  -3.2587  -3.2486  -2.8607  -2.5834
    -2.1103  -2.0392  -1.5416  -1.5045  -1.4962  -1.3239  -0.0410   0.0768
     0.5208   0.5400   2.0111   2.0911   2.7791   2.8141   3.8045

          k = 0.0000 0.2165 0.0000 ( 37653 PWs)   bands (ev):

   -61.8923 -61.8887 -48.3002 -48.2994 -48.2988 -48.2979 -48.2954 -48.2939
   -48.2937 -48.2923 -48.2569 -48.2566 -48.2541 -48.2538 -48.2527 -48.2524
   -48.2485 -48.2483 -48.2376 -48.2340 -48.2336 -48.2286 -36.0009 -35.9986
   -35.9885 -35.9836 -35.9230 -35.9181 -14.8300 -14.7945 -14.2504 -14.2049
    -5.9236  -5.7044  -4.8346  -4.6679  -3.2749  -3.2505  -3.2074  -3.1969
    -2.5661  -2.3174  -1.7291  -1.7187  -1.6287  -1.4642  -0.0979   0.0689
     0.6250   0.6479   1.5968   1.8178   2.7097   2.7519   4.1794

          k = 0.0000 0.2887 0.0000 ( 37721 PWs)   bands (ev):

   -61.8875 -61.8839 -48.3002 -48.2994 -48.2979 -48.2971 -48.2954 -48.2937
   -48.2930 -48.2914 -48.2573 -48.2567 -48.2544 -48.2539 -48.2530 -48.2525
   -48.2488 -48.2484 -48.2372 -48.2336 -48.2331 -48.2282 -36.0416 -36.0366
   -35.9890 -35.9868 -35.9352 -35.9303 -14.4958 -14.4623 -14.0694 -14.0293
    -5.6002  -5.4152  -5.0622  -4.9074  -4.2917  -4.2740  -3.2624  -3.2513
    -2.7256  -2.5325  -1.8565  -1.7741  -1.7607  -1.7600  -0.0414   0.1591
     0.6295   0.6532   1.6469   2.0044   2.7069   2.7565   4.6523

          k = 0.0000 0.3608 0.0000 ( 37749 PWs)   bands (ev):

   -61.8826 -61.8790 -48.3003 -48.2993 -48.2970 -48.2962 -48.2954 -48.2937
   -48.2921 -48.2905 -48.2576 -48.2568 -48.2546 -48.2540 -48.2533 -48.2526
   -48.2491 -48.2485 -48.2367 -48.2331 -48.2327 -48.2277 -36.0935 -36.0885
   -35.9777 -35.9755 -35.9474 -35.9424 -14.1455 -14.1157 -13.8465 -13.8124
    -5.6604  -5.5676  -5.2583  -5.2272  -4.8115  -4.6462  -3.4115  -3.3997
    -3.0548  -2.9212  -2.1183  -2.0350  -1.6716  -1.6531   0.2135   0.4092
     0.6087   0.6284   2.0282   2.4533   2.7393   2.7967   5.1624

          k = 0.0000 0.4330 0.0000 ( 37785 PWs)   bands (ev):

   -61.8785 -61.8749 -48.3003 -48.2993 -48.2962 -48.2954 -48.2954 -48.2936
   -48.2913 -48.2897 -48.2579 -48.2569 -48.2548 -48.2541 -48.2536 -48.2527
   -48.2493 -48.2485 -48.2363 -48.2328 -48.2323 -48.2273 -36.1373 -36.1322
   -35.9680 -35.9658 -35.9577 -35.9527 -13.8778 -13.8543 -13.5644 -13.5367
    -6.2159  -6.1933  -5.6389  -5.5375  -4.5867  -4.4994  -3.5711  -3.5588
    -3.3175  -3.1678  -2.2848  -2.2182  -1.5419  -1.5162   0.5943   0.6274
     0.6397   0.7501   2.5310   2.7720   2.8365   2.9380   4.9614

          k = 0.0000 0.5052 0.0000 ( 37822 PWs)   bands (ev):

   -61.8757 -61.8721 -48.3003 -48.2992 -48.2957 -48.2954 -48.2949 -48.2936
   -48.2908 -48.2892 -48.2581 -48.2570 -48.2549 -48.2541 -48.2538 -48.2528
   -48.2494 -48.2486 -48.2361 -48.2325 -48.2320 -48.2271 -36.1663 -36.1613
   -35.9645 -35.9616 -35.9596 -35.9594 -13.7287 -13.7117 -13.2991 -13.2786
    -6.7730  -6.7515  -5.6463  -5.5714  -4.7407  -4.6755  -3.6834  -3.6707
    -3.2036  -3.0481  -2.4036  -2.3570  -1.4583  -1.4263   0.6798   0.6867
     0.9626   1.0606   2.7919   2.8613   2.9995   3.2905   4.5101

          k = 0.0000-0.5774 0.0000 ( 37832 PWs)   bands (ev):

   -61.8748 -61.8712 -48.3003 -48.2992 -48.2955 -48.2954 -48.2947 -48.2936
   -48.2907 -48.2890 -48.2581 -48.2570 -48.2550 -48.2542 -48.2539 -48.2528
   -48.2495 -48.2486 -48.2360 -48.2324 -48.2319 -48.2270 -36.1765 -36.1714
   -35.9669 -35.9620 -35.9593 -35.9571 -13.6794 -13.6656 -13.1903 -13.1742
    -6.9775  -6.9577  -5.5983  -5.5616  -4.8831  -4.8159  -3.7231  -3.7103
    -3.0640  -2.9335  -2.4685  -2.4283  -1.4319  -1.3975   0.7078   0.7143
     1.1309   1.1848   2.7983   2.8694   3.2518   3.4356   4.1967

          k = 0.0625 0.1083 0.0000 ( 37709 PWs)   bands (ev):

   -61.8973 -61.8937 -48.3003 -48.2998 -48.2994 -48.2989 -48.2954 -48.2949
   -48.2937 -48.2933 -48.2566 -48.2565 -48.2538 -48.2537 -48.2524 -48.2523
   -48.2483 -48.2482 -48.2381 -48.2345 -48.2340 -48.2291 -36.0122 -36.0099
   -35.9340 -35.9290 -35.9107 -35.9058 -15.1482 -15.1116 -14.4180 -14.3677
    -6.3367  -6.1128  -4.3099  -4.0959  -3.2874  -3.2775  -2.8935  -2.5794
    -1.9131  -1.8401  -1.5192  -1.4929  -1.4379  -1.2588   0.0279   0.1246
     0.4224   0.4380   2.2522   2.2968   2.7438   2.7645   3.7235

          k = 0.0625 0.1804 0.0000 ( 37703 PWs)   bands (ev):

   -61.8939 -61.8903 -48.3002 -48.2994 -48.2991 -48.2983 -48.2953 -48.2943
   -48.2937 -48.2926 -48.2568 -48.2566 -48.2540 -48.2538 -48.2526 -48.2523
   -48.2485 -48.2482 -48.2378 -48.2342 -48.2337 -48.2288 -36.0043 -36.0020
   -35.9706 -35.9656 -35.9202 -35.9153 -14.9328 -14.8969 -14.3050 -14.2579
    -6.0499  -5.8276  -4.6984  -4.5196  -3.2822  -3.2722  -2.8955  -2.7572
    -2.4998  -2.3985  -1.7931  -1.7249  -1.4890  -1.2939   0.0083   0.1412
     0.4273   0.4433   1.8993   2.0334   2.5662   2.5955   4.0384

          k = 0.0625 0.2526 0.0000 ( 37702 PWs)   bands (ev):

   -61.8894 -61.8858 -48.3002 -48.2994 -48.2983 -48.2975 -48.2953 -48.2937
   -48.2934 -48.2918 -48.2571 -48.2567 -48.2542 -48.2539 -48.2529 -48.2525
   -48.2487 -48.2483 -48.2373 -48.2338 -48.2333 -48.2283 -36.0183 -36.0134
   -35.9936 -35.9913 -35.9326 -35.9276 -14.6320 -14.5975 -14.1461 -14.1038
    -5.6828  -5.4713  -5.0208  -4.8691  -3.8453  -3.8320  -3.2377  -3.2132
    -2.6767  -2.5357  -1.9970  -1.9359  -1.5022  -1.3752  -0.0696   0.0741
     0.4866   0.5541   1.7545   1.9746   2.5417   2.5779   4.4621

          k = 0.0625 0.3248 0.0000 ( 37734 PWs)   bands (ev):

   -61.8846 -61.8809 -48.3002 -48.2993 -48.2974 -48.2966 -48.2953 -48.2936
   -48.2925 -48.2909 -48.2574 -48.2568 -48.2545 -48.2540 -48.2532 -48.2526
   -48.2490 -48.2484 -48.2369 -48.2333 -48.2329 -48.2279 -36.0693 -36.0642
   -35.9824 -35.9801 -35.9460 -35.9410 -14.2822 -14.2505 -13.9492 -13.9126
    -5.5363  -5.3960  -4.9986  -4.8789  -4.7975  -4.7408  -3.4763  -3.4526
    -2.7838  -2.6782  -2.2923  -2.2694  -1.4721  -1.3985  -0.0329   0.1279
     0.6349   0.6941   1.8589   2.1196   2.6261   2.7128   4.9725

          k = 0.0625 0.3969 0.0000 ( 37770 PWs)   bands (ev):

   -61.8801 -61.8765 -48.3002 -48.2992 -48.2966 -48.2958 -48.2952 -48.2935
   -48.2917 -48.2901 -48.2577 -48.2569 -48.2547 -48.2541 -48.2535 -48.2527
   -48.2492 -48.2485 -48.2365 -48.2329 -48.2324 -48.2275 -36.1160 -36.1110
   -35.9719 -35.9697 -35.9583 -35.9533 -13.9631 -13.9365 -13.7016 -13.6712
    -5.8331  -5.8125  -5.5370  -5.4447  -4.6345  -4.4992  -3.7274  -3.6919
    -3.0326  -2.9558  -2.5147  -2.4835  -1.3875  -1.3499   0.1778   0.3028
     0.7903   0.8476   2.1557   2.3378   2.7578   2.9570   5.3137

          k = 0.0625 0.4691 0.0000 ( 37798 PWs)   bands (ev):

   -61.8766 -61.8730 -48.3002 -48.2991 -48.2960 -48.2952 -48.2952 -48.2935
   -48.2911 -48.2895 -48.2580 -48.2570 -48.2549 -48.2541 -48.2537 -48.2528
   -48.2494 -48.2486 -48.2362 -48.2326 -48.2321 -48.2271 -36.1515 -36.1465
   -35.9681 -35.9635 -35.9634 -35.9610 -13.7614 -13.7416 -13.4129 -13.3892
    -6.4865  -6.4643  -5.6417  -5.5540  -4.5925  -4.5295  -3.8253  -3.7848
    -3.1622  -3.0583  -2.6179  -2.5923  -1.3354  -1.3231   0.4480   0.5165
     0.9673   1.0293   2.4302   2.5014   2.9563   3.2196   4.9327

          k = 0.0625 0.5413 0.0000 ( 37791 PWs)   bands (ev):

   -61.8748 -61.8712 -48.3002 -48.2991 -48.2957 -48.2952 -48.2948 -48.2935
   -48.2908 -48.2891 -48.2581 -48.2571 -48.2550 -48.2542 -48.2538 -48.2528
   -48.2495 -48.2486 -48.2360 -48.2324 -48.2319 -48.2270 -36.1707 -36.1656
   -35.9730 -35.9680 -35.9593 -35.9571 -13.6651 -13.6507 -13.2144 -13.1974
    -6.8725  -6.8523  -5.6052  -5.5555  -4.8021  -4.7355  -3.8285  -3.8143
    -3.0549  -2.9469  -2.6845  -2.6709  -1.3325  -1.3285   0.6540   0.6757
     1.0982   1.1508   2.5376   2.5977   3.1972   3.3949   4.4810

          k = 0.1250 0.2165 0.0000 ( 37731 PWs)   bands (ev):

   -61.8901 -61.8865 -48.3001 -48.2993 -48.2985 -48.2977 -48.2953 -48.2936
   -48.2936 -48.2920 -48.2571 -48.2567 -48.2542 -48.2539 -48.2528 -48.2524
   -48.2486 -48.2483 -48.2374 -48.2338 -48.2334 -48.2284 -36.0085 -36.0035
   -35.9955 -35.9932 -35.9331 -35.9282 -14.6787 -14.6439 -14.1724 -14.1293
    -5.7168  -5.4977  -4.9895  -4.8370  -3.7023  -3.6899  -3.0761  -2.9553
    -2.8707  -2.8596  -1.9966  -1.8813  -1.4016  -1.2250   0.0214   0.0723
     0.2563   0.4158   2.0969   2.1652   2.1954   2.3142   4.3999

          k = 0.1250 0.2887 0.0000 ( 37723 PWs)   bands (ev):

   -61.8856 -61.8820 -48.3000 -48.2991 -48.2978 -48.2969 -48.2951 -48.2935
   -48.2929 -48.2912 -48.2574 -48.2568 -48.2544 -48.2540 -48.2531 -48.2526
   -48.2489 -48.2484 -48.2370 -48.2334 -48.2330 -48.2280 -36.0520 -36.0470
   -35.9851 -35.9829 -35.9491 -35.9442 -14.3552 -14.3225 -14.0020 -13.9642
    -5.3991  -5.2260  -5.1391  -4.9768  -4.4710  -4.4581  -3.4930  -3.4375
    -2.9655  -2.9456  -2.2353  -2.1753  -1.2691  -1.1292  -0.2215  -0.0966
     0.5493   0.6849   1.8571   1.8829   2.4036   2.6392   4.8673

          k = 0.1250 0.3608 0.0000 ( 37761 PWs)   bands (ev):

   -61.8811 -61.8775 -48.2999 -48.2990 -48.2970 -48.2962 -48.2950 -48.2933
   -48.2922 -48.2905 -48.2576 -48.2569 -48.2546 -48.2541 -48.2534 -48.2527
   -48.2491 -48.2486 -48.2366 -48.2330 -48.2325 -48.2276 -36.0949 -36.0899
   -35.9753 -35.9728 -35.9649 -35.9601 -14.0131 -13.9843 -13.7975 -13.7657
    -5.5320  -5.4445  -5.2770  -5.2542  -4.7579  -4.5838  -3.8722  -3.8311
    -3.0672  -3.0441  -2.6494  -2.6196  -1.1205  -1.0237  -0.1979  -0.0524
     0.8474   0.9332   1.7562   1.8208   2.6865   2.9645   5.3966

          k = 0.1250 0.4330 0.0000 ( 37768 PWs)   bands (ev):

   -61.8773 -61.8737 -48.2998 -48.2988 -48.2964 -48.2956 -48.2949 -48.2932
   -48.2915 -48.2899 -48.2579 -48.2570 -48.2548 -48.2542 -48.2536 -48.2528
   -48.2493 -48.2486 -48.2362 -48.2327 -48.2322 -48.2272 -36.1309 -36.1259
   -35.9802 -35.9753 -35.9650 -35.9627 -13.7592 -13.7368 -13.5315 -13.5058
    -6.0766  -6.0573  -5.5762  -5.4863  -4.4509  -4.3645  -4.1120  -4.0409
    -3.1793  -3.1567  -2.9996  -2.9649  -1.0680  -1.0113   0.0533   0.1766
     1.0549   1.0994   1.8548   1.9345   2.9524   3.2158   5.4942

          k = 0.1250 0.5052 0.0000 ( 37794 PWs)   bands (ev):

   -61.8748 -61.8712 -48.2998 -48.2987 -48.2960 -48.2952 -48.2949 -48.2931
   -48.2911 -48.2895 -48.2580 -48.2571 -48.2549 -48.2542 -48.2537 -48.2529
   -48.2494 -48.2487 -48.2360 -48.2324 -48.2320 -48.2270 -36.1549 -36.1498
   -35.9893 -35.9843 -35.9594 -35.9572 -13.6234 -13.6074 -13.2792 -13.2606
    -6.5803  -6.5602  -5.5939  -5.5333  -4.6049  -4.5453  -4.0601  -4.0067
    -3.2606  -3.2389  -3.0778  -3.0174  -1.1155  -1.0774   0.4125   0.4908
     1.1111   1.1394   2.0258   2.0899   3.1514   3.3368   5.0908

          k = 0.1250 0.5774 0.0000 ( 37780 PWs)   bands (ev):

   -61.8739 -61.8703 -48.2998 -48.2987 -48.2958 -48.2950 -48.2948 -48.2931
   -48.2910 -48.2893 -48.2581 -48.2571 -48.2550 -48.2543 -48.2538 -48.2529
   -48.2495 -48.2487 -48.2359 -48.2323 -48.2319 -48.2269 -36.1632 -36.1581
   -35.9925 -35.9875 -35.9573 -35.9551 -13.5779 -13.5651 -13.1777 -13.1635
    -6.7638  -6.7440  -5.5705  -5.5406  -4.7217  -4.6560  -4.0458  -4.0131
    -3.2892  -3.2684  -3.0319  -2.9761  -1.1530  -1.1176   0.6459   0.6613
     1.0563   1.0952   2.1251   2.1533   3.2246   3.3732   4.8323

          k = 0.1875 0.3248 0.0000 ( 37725 PWs)   bands (ev):

   -61.8815 -61.8779 -48.2998 -48.2988 -48.2972 -48.2964 -48.2949 -48.2932
   -48.2923 -48.2907 -48.2576 -48.2569 -48.2546 -48.2541 -48.2533 -48.2527
   -48.2491 -48.2486 -48.2366 -48.2331 -48.2326 -48.2276 -36.0854 -36.0804
   -35.9773 -35.9746 -35.9684 -35.9640 -14.0290 -13.9995 -13.8322 -13.8001
    -5.4154  -5.3008  -5.1023  -5.0953  -4.8437  -4.6670  -3.8806  -3.8288
    -3.3426  -3.3294  -2.5188  -2.5128  -0.9741  -0.8433  -0.3717  -0.2279
     0.8347   0.9469   1.5974   1.6027   2.6679   2.9642   5.3656

          k = 0.1875 0.3969 0.0000 ( 37753 PWs)   bands (ev):

   -61.8777 -61.8741 -48.2995 -48.2985 -48.2968 -48.2959 -48.2946 -48.2929
   -48.2919 -48.2902 -48.2578 -48.2571 -48.2548 -48.2542 -48.2535 -48.2528
   -48.2492 -48.2487 -48.2363 -48.2327 -48.2322 -48.2272 -36.1141 -36.1091
   -35.9925 -35.9876 -35.9659 -35.9636 -13.7234 -13.6996 -13.6311 -13.6047
    -5.7043  -5.6938  -5.4959  -5.4107  -4.4468  -4.3000  -4.2227  -4.1699
    -3.6714  -3.6526  -2.9240  -2.9044  -0.7499  -0.6591  -0.3003  -0.1678
     1.0722   1.1381   1.4930   1.5497   2.9592   3.2214   5.8297

          k = 0.1875 0.4691 0.0000 ( 37759 PWs)   bands (ev):

   -61.8748 -61.8712 -48.2993 -48.2983 -48.2964 -48.2956 -48.2944 -48.2926
   -48.2915 -48.2899 -48.2579 -48.2572 -48.2549 -48.2543 -48.2537 -48.2529
   -48.2494 -48.2488 -48.2360 -48.2324 -48.2320 -48.2270 -36.1350 -36.1300
   -36.0096 -36.0046 -35.9594 -35.9572 -13.5583 -13.5408 -13.3665 -13.3468
    -6.1906  -6.1744  -5.5487  -5.4900  -4.4624  -4.4110  -4.1686  -4.0769
    -3.9031  -3.8710  -3.1849  -3.1822  -0.7818  -0.7205   0.0544   0.1468
     1.1318   1.1575   1.6184   1.7183   3.1526   3.3073   5.6528

          k = 0.1875 0.5413 0.0000 ( 37793 PWs)   bands (ev):

   -61.8732 -61.8696 -48.2992 -48.2981 -48.2963 -48.2954 -48.2943 -48.2925
   -48.2914 -48.2897 -48.2580 -48.2573 -48.2550 -48.2543 -48.2537 -48.2530
   -48.2495 -48.2488 -48.2358 -48.2323 -48.2318 -48.2268 -36.1460 -36.1409
   -36.0192 -36.0142 -35.9558 -35.9536 -13.4776 -13.4654 -13.1939 -13.1807
    -6.4696  -6.4501  -5.5620  -5.5323  -4.5588  -4.4985  -4.1918  -4.1418
    -3.9797  -3.9452  -3.2141  -3.1973  -0.8645  -0.8111   0.4459   0.4865
     0.9861   1.0084   1.8383   1.9072   3.1661   3.2650   5.4011

          k = 0.2500 0.4330 0.0000 ( 37711 PWs)   bands (ev):

   -61.8748 -61.8712 -48.2990 -48.2980 -48.2966 -48.2958 -48.2941 -48.2924
   -48.2918 -48.2901 -48.2579 -48.2572 -48.2549 -48.2543 -48.2536 -48.2530
   -48.2494 -48.2488 -48.2360 -48.2324 -48.2319 -48.2270 -36.1246 -36.1196
   -36.0202 -36.0152 -35.9594 -35.9572 -13.4974 -13.4801 -13.4362 -13.4157
    -5.9679  -5.9568  -5.5134  -5.4607  -4.4523  -4.3914  -4.2559  -4.2468
    -4.0976  -3.9890  -3.3007  -3.2592  -0.4238  -0.3340  -0.3106  -0.2437
     1.1162   1.1597   1.4902   1.6038   3.1613   3.2990   5.9394

          k = 0.2500 0.5052 0.0000 ( 37776 PWs)   bands (ev):

   -61.8728 -61.8692 -48.2987 -48.2976 -48.2967 -48.2958 -48.2937 -48.2921
   -48.2917 -48.2902 -48.2579 -48.2573 -48.2550 -48.2544 -48.2537 -48.2531
   -48.2495 -48.2488 -48.2358 -48.2323 -48.2318 -48.2268 -36.1272 -36.1221
   -36.0432 -36.0382 -35.9549 -35.9528 -13.3838 -13.3716 -13.2465 -13.2333
    -6.1186  -6.1014  -5.5500  -5.5249  -4.6813  -4.6673  -4.4244  -4.3631
    -4.0028  -3.9468  -3.5318  -3.5007  -0.4765  -0.4120   0.0374   0.0781
     0.9542   0.9664   1.7520   1.9100   3.1260   3.1654   5.6898

          k = 0.2500 0.5774 0.0000 ( 37791 PWs)   bands (ev):

   -61.8721 -61.8685 -48.2985 -48.2975 -48.2967 -48.2959 -48.2936 -48.2920
   -48.2916 -48.2902 -48.2579 -48.2574 -48.2550 -48.2544 -48.2537 -48.2531
   -48.2495 -48.2489 -48.2358 -48.2322 -48.2317 -48.2268 -36.1266 -36.1216
   -36.0528 -36.0478 -35.9534 -35.9512 -13.3434 -13.3342 -13.1747 -13.1656
    -6.1628  -6.1428  -5.5756  -5.5590  -4.8325  -4.8200  -4.2681  -4.2089
    -4.1892  -4.1459  -3.5288  -3.5067  -0.5227  -0.4645   0.2943   0.3350
     0.7452   0.7629   1.9915   2.0919   2.9982   3.0250   5.5912

          k = 0.3125 0.5413 0.0000 ( 37789 PWs)   bands (ev):

   -61.8718 -61.8682 -48.2980 -48.2972 -48.2969 -48.2962 -48.2931 -48.2923
   -48.2913 -48.2906 -48.2579 -48.2575 -48.2551 -48.2544 -48.2536 -48.2532
   -48.2495 -48.2489 -48.2357 -48.2322 -48.2317 -48.2267 -36.1091 -36.1041
   -36.0753 -36.0702 -35.9525 -35.9504 -13.2634 -13.2555 -13.2012 -13.1936
    -5.8603  -5.8374  -5.5808  -5.5720  -5.2749  -5.2556  -4.2657  -4.1976
    -3.9257  -3.8902  -3.8831  -3.8329  -0.1944  -0.1255   0.0020   0.0534
     0.6525   0.6576   2.1672   2.3335   2.7648   2.8800   5.5374

     the Fermi energy is    -0.3083 ev

!    total energy              =   -2326.93394620 Ry
     total all-electron energy =    -35628.681775 Ry
     estimated scf accuracy    <          3.7E-09 Ry
     smearing contrib. (-TS)   =       0.00090146 Ry
     internal energy E=F+TS    =   -2326.93484766 Ry

     The total energy is F=E-TS. E is the sum of the following terms:
     one-electron contribution =  -27783.31837688 Ry
     hartree contribution      =   13879.86953029 Ry
     xc contribution           =    -152.43540327 Ry
     ewald contribution        =   12739.46371825 Ry
     one-center paw contrib.   =   -1010.51431606 Ry

     convergence has been achieved in  26 iterations

     Writing all to output data dir ./tmp/cleave_004/mose2_cleave_004.save/ :
     XML data file, charge density, pseudopotentials, collected wavefunctions

     init_run     :     11.87s CPU     12.06s WALL (       1 calls)
     electrons    :    503.94s CPU    513.15s WALL (       1 calls)

     Called by init_run:
     wfcinit      :      5.49s CPU      5.52s WALL (       1 calls)
     potinit      :      5.72s CPU      5.77s WALL (       1 calls)
     hinit0       :      0.05s CPU      0.06s WALL (       1 calls)

     Called by electrons:
     c_bands      :    421.56s CPU    424.23s WALL (      27 calls)
     sum_band     :     54.18s CPU     57.16s WALL (      27 calls)
     v_of_rho     :     16.02s CPU     16.93s WALL (      27 calls)
     newd         :      9.79s CPU     12.50s WALL (      27 calls)
     PAW_pot      :      1.65s CPU      1.70s WALL (      27 calls)
     mix_rho      :      6.55s CPU      6.59s WALL (      27 calls)
     vdW_kernel   :      5.27s CPU      5.27s WALL (       1 calls)

     Called by c_bands:
     init_us_2    :      3.94s CPU      3.95s WALL (    1650 calls)
     cegterg      :    413.74s CPU    416.32s WALL (     810 calls)

     Called by *egterg:
     cdiaghg      :     13.68s CPU     13.71s WALL (    4033 calls)
     h_psi        :    186.96s CPU    188.16s WALL (    4093 calls)
     s_psi        :     41.37s CPU     41.44s WALL (    4093 calls)
     g_psi        :      0.77s CPU      0.77s WALL (    3253 calls)

     Called by h_psi:
     h_psi:calbec :     53.03s CPU     53.37s WALL (    4093 calls)
     vloc_psi     :     80.27s CPU     81.02s WALL (    4093 calls)
                                        0.00s GPU  (    4093 calls)
     add_vuspsi   :     52.89s CPU     52.99s WALL (    4093 calls)

     General routines
     calbec       :     75.57s CPU     76.03s WALL (    4903 calls)
     fft          :      5.92s CPU      5.97s WALL (    1700 calls)
     ffts         :      2.26s CPU      2.27s WALL (    3129 calls)
     fftw         :     85.82s CPU     86.60s WALL (  244606 calls)
     interpolate  :      0.12s CPU      0.12s WALL (      27 calls)

     Parallel routines

     PWSCF        :   8m36.49s CPU   8m46.14s WALL


   This run was terminated on:   9:26: 2  20Jun2026            

=------------------------------------------------------------------------------=
   JOB DONE.
=------------------------------------------------------------------------------=
Note: The following floating-point exceptions are signalling: IEEE_UNDERFLOW_FLAG IEEE_DENORMAL
Note: The following floating-point exceptions are signalling: IEEE_UNDERFLOW_FLAG IEEE_DENORMAL
Note: The following floating-point exceptions are signalling: IEEE_UNDERFLOW_FLAG IEEE_DENORMAL
Note: The following floating-point exceptions are signalling: IEEE_UNDERFLOW_FLAG IEEE_DENORMAL
Note: The following floating-point exceptions are signalling: IEEE_UNDERFLOW_FLAG IEEE_DENORMAL
Note: The following floating-point exceptions are signalling: IEEE_UNDERFLOW_FLAG IEEE_DENORMAL
Note: The following floating-point exceptions are signalling: IEEE_UNDERFLOW_FLAG IEEE_DENORMAL
Note: The following floating-point exceptions are signalling: IEEE_UNDERFLOW_FLAG IEEE_DENORMAL
Note: The following floating-point exceptions are signalling: IEEE_UNDERFLOW_FLAG IEEE_DENORMAL
Note: The following floating-point exceptions are signalling: IEEE_UNDERFLOW_FLAG IEEE_DENORMAL
Note: The following floating-point exceptions are signalling: IEEE_UNDERFLOW_FLAG IEEE_DENORMAL
Note: The following floating-point exceptions are signalling: IEEE_UNDERFLOW_FLAG IEEE_DENORMAL
Note: The following floating-point exceptions are signalling: IEEE_UNDERFLOW_FLAG IEEE_DENORMAL
Note: The following floating-point exceptions are signalling: IEEE_UNDERFLOW_FLAG IEEE_DENORMAL
Note: The following floating-point exceptions are signalling: IEEE_UNDERFLOW_FLAG IEEE_DENORMAL
Note: The following floating-point exceptions are signalling: IEEE_UNDERFLOW_FLAG IEEE_DENORMAL
Note: The following floating-point exceptions are signalling: IEEE_UNDERFLOW_FLAG IEEE_DENORMAL
Note: The following floating-point exceptions are signalling: IEEE_UNDERFLOW_FLAG IEEE_DENORMAL
Note: The following floating-point exceptions are signalling: IEEE_UNDERFLOW_FLAG IEEE_DENORMAL
Note: The following floating-point exceptions are signalling: IEEE_UNDERFLOW_FLAG IEEE_DENORMAL
Note: The following floating-point exceptions are signalling: IEEE_UNDERFLOW_FLAG IEEE_DENORMAL
Note: The following floating-point exceptions are signalling: IEEE_UNDERFLOW_FLAG IEEE_DENORMAL
Note: The following floating-point exceptions are signalling: IEEE_UNDERFLOW_FLAG IEEE_DENORMAL
Note: The following floating-point exceptions are signalling: IEEE_UNDERFLOW_FLAG IEEE_DENORMAL
