
     Program PWSCF v.7.5 starts on 20Jun2026 at 12:48:31 

     This program is part of the open-source Quantum ESPRESSO suite
     for quantum simulation of materials; please cite
         "P. Giannozzi et al., J. Phys.:Condens. Matter 21 395502 (2009);
         "P. Giannozzi et al., J. Phys.:Condens. Matter 29 465901 (2017);
         "P. Giannozzi et al., J. Chem. Phys. 152 154105 (2020);
          URL http://www.quantum-espresso.org", 
     in publications or presentations arising from this work. More details at
     http://www.quantum-espresso.org/quote

     Parallel version (MPI), running on    24 processors

     MPI processes distributed on     1 nodes
     23344 MiB available memory on the printing compute node when the environment starts

     Waiting for input...
     Reading input from standard input

     Current dimensions of program PWSCF are:
     Max number of different atomic species (ntypx) = 10
     Max number of k-points (npk) =  40000
     Max angular momentum in pseudopotentials (lmaxx) =  4
     file Mo.pbe-spn-kjpaw_psl.1.0.0.UPF: wavefunction(s)  4S 4D renormalized
     file Se.pbe-dn-kjpaw_psl.1.0.0.UPF: wavefunction(s)  4S 4P 3D renormalized

     IMPORTANT: XC functional enforced from input :
     Exchange-correlation= VDW-DF2-B86R
                           (   1   4  26   0   2   0   0)
     Any further DFT definition will be discarded
     Please, verify this is what you really want


     R & G space division:  proc/nbgrp/npool/nimage =      24
     Subspace diagonalization in iterative solution of the eigenvalue problem:
     a serial algorithm will be used


     Parallelization info
     --------------------
     sticks:   dense  smooth     PW     G-vecs:    dense   smooth      PW
     Min          69      35     10                35537    12585    1924
     Max          70      36     11                35620    12648    1981
     Sum        1675     847    241               853823   302525   46513

     Using Slab Decomposition



     bravais-lattice index     =            4
     lattice parameter (alat)  =       6.1794  a.u.
     unit-cell volume          =    3124.5879 (a.u.)^3
     number of atoms/cell      =            6
     number of atomic types    =            2
     number of electrons       =        92.00
     number of Kohn-Sham states=           55
     kinetic-energy cutoff     =      80.0000  Ry
     charge density cutoff     =     640.0000  Ry
     scf convergence threshold =      1.0E-08
     mixing beta               =       0.3000
     number of iterations used =            8  local-TF  mixing
     Exchange-correlation= VDW-DF2-B86R
                           (   1   4  26   0   2   0   0)

     celldm(1)=   6.179404  celldm(2)=   0.000000  celldm(3)=  15.290520
     celldm(4)=   0.000000  celldm(5)=   0.000000  celldm(6)=   0.000000

     crystal axes: (cart. coord. in units of alat)
               a(1) = (   1.000000   0.000000   0.000000 )  
               a(2) = (  -0.500000   0.866025   0.000000 )  
               a(3) = (   0.000000   0.000000  15.290520 )  

     reciprocal axes: (cart. coord. in units 2 pi/alat)
               b(1) = (  1.000000  0.577350 -0.000000 )  
               b(2) = (  0.000000  1.154701  0.000000 )  
               b(3) = (  0.000000 -0.000000  0.065400 )  


     PseudoPot. # 1 for Mo read from file:
     ./pseudo/Mo.pbe-spn-kjpaw_psl.1.0.0.UPF
     MD5 check sum: 4396e0c640fcce5c25f020efccf1ab12
     Pseudo is Projector augmented-wave + core cor, Zval = 14.0
     Generated using &quot;atomic&quot; code by A. Dal Corso  v.6.3
     Shape of augmentation charge: PSQ
     Using radial grid of 1229 points,  6 beta functions with: 
                l(1) =   0
                l(2) =   0
                l(3) =   1
                l(4) =   1
                l(5) =   2
                l(6) =   2
     Q(r) pseudized with 0 coefficients 


     PseudoPot. # 2 for Se read from file:
     ./pseudo/Se.pbe-dn-kjpaw_psl.1.0.0.UPF
     MD5 check sum: ac240dd2bae32a30e0bf3a38df9c8785
     Pseudo is Projector augmented-wave + core cor, Zval = 16.0
     Generated using &quot;atomic&quot; code by A. Dal Corso  v.6.3
     Shape of augmentation charge: PSQ
     Using radial grid of 1211 points,  6 beta functions with: 
                l(1) =   0
                l(2) =   0
                l(3) =   1
                l(4) =   1
                l(5) =   2
                l(6) =   2
     Q(r) pseudized with 0 coefficients 


     atomic species   valence    mass     pseudopotential
     Mo               14.00    95.96000     Mo( 1.00)
     Se               16.00    78.96000     Se( 1.00)

      6 Sym. Ops. (no inversion) found



   Cartesian axes

     site n.     atom                  positions (alat units)
         1        Se     tau(   1) = (  -0.0000005   0.5773506   6.1238532  )
         2        Mo     tau(   2) = (   0.0000000   0.0000000   6.6502752  )
         3        Se     tau(   3) = (   0.5000005   0.2886748   7.1775994  )
         4        Se     tau(   4) = (  -0.0000005   0.5773506  10.0083639  )
         5        Mo     tau(   5) = (   0.5000005   0.2886748  10.5355505  )
         6        Se     tau(   6) = (   0.0000000   0.0000000  11.0626911  )

     number of k points=    30  Methfessel-Paxton smearing, width (Ry)=  0.0200
                       cart. coord. in units 2pi/alat
        k(    1) = (   0.0000000   0.0000000   0.0000000), wk =   0.0078125
        k(    2) = (   0.0000000   0.0721688   0.0000000), wk =   0.0468750
        k(    3) = (   0.0000000   0.1443376   0.0000000), wk =   0.0468750
        k(    4) = (   0.0000000   0.2165064   0.0000000), wk =   0.0468750
        k(    5) = (   0.0000000   0.2886751   0.0000000), wk =   0.0468750
        k(    6) = (   0.0000000   0.3608439   0.0000000), wk =   0.0468750
        k(    7) = (   0.0000000   0.4330127   0.0000000), wk =   0.0468750
        k(    8) = (   0.0000000   0.5051815   0.0000000), wk =   0.0468750
        k(    9) = (   0.0000000  -0.5773503   0.0000000), wk =   0.0234375
        k(   10) = (   0.0625000   0.1082532   0.0000000), wk =   0.0468750
        k(   11) = (   0.0625000   0.1804220   0.0000000), wk =   0.0937500
        k(   12) = (   0.0625000   0.2525907   0.0000000), wk =   0.0937500
        k(   13) = (   0.0625000   0.3247595   0.0000000), wk =   0.0937500
        k(   14) = (   0.0625000   0.3969283   0.0000000), wk =   0.0937500
        k(   15) = (   0.0625000   0.4690971   0.0000000), wk =   0.0937500
        k(   16) = (   0.0625000   0.5412659   0.0000000), wk =   0.0937500
        k(   17) = (   0.1250000   0.2165064   0.0000000), wk =   0.0468750
        k(   18) = (   0.1250000   0.2886751   0.0000000), wk =   0.0937500
        k(   19) = (   0.1250000   0.3608439   0.0000000), wk =   0.0937500
        k(   20) = (   0.1250000   0.4330127   0.0000000), wk =   0.0937500
        k(   21) = (   0.1250000   0.5051815   0.0000000), wk =   0.0937500
        k(   22) = (   0.1250000   0.5773503   0.0000000), wk =   0.0468750
        k(   23) = (   0.1875000   0.3247595   0.0000000), wk =   0.0468750
        k(   24) = (   0.1875000   0.3969283   0.0000000), wk =   0.0937500
        k(   25) = (   0.1875000   0.4690971   0.0000000), wk =   0.0937500
        k(   26) = (   0.1875000   0.5412659   0.0000000), wk =   0.0937500
        k(   27) = (   0.2500000   0.4330127   0.0000000), wk =   0.0468750
        k(   28) = (   0.2500000   0.5051815   0.0000000), wk =   0.0937500
        k(   29) = (   0.2500000   0.5773503   0.0000000), wk =   0.0468750
        k(   30) = (   0.3125000   0.5412659   0.0000000), wk =   0.0468750

     Dense  grid:   853823 G-vectors     FFT dimensions: (  50,  50, 768)

     Smooth grid:   302525 G-vectors     FFT dimensions: (  36,  36, 540)

     Estimated max dynamical RAM per process >     171.88 MB

     Estimated total dynamical RAM >       4.03 GB

     Initial potential from superposition of free atoms

     starting charge      91.9979, renormalised to      92.0000

     negative rho (up, down):  1.642E-04 0.000E+00


     %%%%%%%%%%%%%%%%%%%%%%%%%%%%%%%%%%%%%%%%%%%%%%%%%%%%%%%%%%%%%%%%%%%%%%%%
     %                                                                      %
     % You are using vdW-DF, which was implemented by the Thonhauser group. %
     % Please cite the following two papers that made this development      %
     % possible and the two reviews that describe the various versions:     %
     %                                                                      %
     %   T. Thonhauser et al., PRL 115, 136402 (2015).                      %
     %   T. Thonhauser et al., PRB 76, 125112 (2007).                       %
     %   K. Berland et al., Rep. Prog. Phys. 78, 066501 (2015).             %
     %   D.C. Langreth et al., J. Phys.: Condens. Matter 21, 084203 (2009). %
     %                                                                      %
     % If you are calculating stress with vdW-DF, please also cite:         %
     %                                                                      %
     %   R. Sabatini et al., J. Phys.: Condens. Matter 24, 424209 (2012).   %
     %                                                                      %
     %%%%%%%%%%%%%%%%%%%%%%%%%%%%%%%%%%%%%%%%%%%%%%%%%%%%%%%%%%%%%%%%%%%%%%%%

     %%%%%%%%%%%%%%%%%%%%%%%%%%%%%%%%%%%%%%%%%%%%%%%%%%%%%%%%%%%%%%%%%%%%%%%%
     %                                                                      %
     %  vdW-DF NEWS:                                                        %
     %                                                                      %
     %  * vdW-DF3 is now available. DOI: 10.1021/acs.jctc.0c00471           %
     %    use with input_dft = 'vdW-DF3-opt1' or 'vdW-DF3-opt2'             %
     %                                                                      %
     %  * Unscreened and range-separated hybrid vdW-DF-cx functionals       %
     %    DOI: 10.1063/1.4986522 and 10.1088/1361-648X/ac2ad2               %
     %    use with input_dft = 'vdW-DF-cx0'    and 'vdW-DF-ahcx'            %
     %  * Unscreened and range-separated hybrid vdW-DF2-b86r functionals    %
     %    DOI: 10.1063/1.4986522 and DOI: 10.1103/PhysRevX.12.041003        %
     %    use with input_dft = 'vdW-DF2-br0' and 'vdW-DF2-ahbr'             %
     %                                                                      %
     %%%%%%%%%%%%%%%%%%%%%%%%%%%%%%%%%%%%%%%%%%%%%%%%%%%%%%%%%%%%%%%%%%%%%%%%


     Starting wfcs are   56 randomized atomic wfcs
     Checking if some PAW data can be deallocated... 

     total cpu time spent up to now is       12.1 secs

     per-process dynamical memory:    79.7 Mb

     Self-consistent Calculation

     iteration #  1     ecut=    80.00 Ry     beta= 0.30
     Davidson diagonalization with overlap
     ethr =  1.00E-02,  avg # of iterations =  4.4

     Threshold (ethr) on eigenvalues was too large:
     Diagonalizing with lowered threshold

     Davidson diagonalization with overlap
     ethr =  4.50E-04,  avg # of iterations =  2.0

     negative rho (up, down):  4.030E-05 0.000E+00

     total cpu time spent up to now is       49.9 secs

     total energy              =   -2326.96221583 Ry
     estimated scf accuracy    <       0.46097682 Ry

     iteration #  2     ecut=    80.00 Ry     beta= 0.30
     Davidson diagonalization with overlap
     ethr =  5.01E-04,  avg # of iterations =  1.3

     negative rho (up, down):  2.841E-05 0.000E+00

     total cpu time spent up to now is       65.8 secs

     total energy              =   -2326.91634784 Ry
     estimated scf accuracy    <       0.24129619 Ry

     iteration #  3     ecut=    80.00 Ry     beta= 0.30
     Davidson diagonalization with overlap
     ethr =  2.62E-04,  avg # of iterations =  5.6

     negative rho (up, down):  7.830E-06 0.000E+00

     total cpu time spent up to now is       85.1 secs

     total energy              =   -2326.92283078 Ry
     estimated scf accuracy    <       0.03213915 Ry

     iteration #  4     ecut=    80.00 Ry     beta= 0.30
     Davidson diagonalization with overlap
     ethr =  3.49E-05,  avg # of iterations =  6.6

     negative rho (up, down):  2.765E-06 0.000E+00

     total cpu time spent up to now is      106.6 secs

     total energy              =   -2326.92307453 Ry
     estimated scf accuracy    <       0.01033468 Ry

     iteration #  5     ecut=    80.00 Ry     beta= 0.30
     Davidson diagonalization with overlap
     c_bands:  1 eigenvalues not converged
     ethr =  1.12E-05,  avg # of iterations =  4.3

     negative rho (up, down):  8.233E-07 0.000E+00

     total cpu time spent up to now is      127.5 secs

     total energy              =   -2326.92204780 Ry
     estimated scf accuracy    <       0.00445820 Ry

     iteration #  6     ecut=    80.00 Ry     beta= 0.30
     Davidson diagonalization with overlap
     c_bands:  1 eigenvalues not converged
     c_bands:  1 eigenvalues not converged
     ethr =  4.85E-06,  avg # of iterations =  7.1

     negative rho (up, down):  2.915E-07 0.000E+00

     total cpu time spent up to now is      149.7 secs

     total energy              =   -2326.92206141 Ry
     estimated scf accuracy    <       0.00158603 Ry

     iteration #  7     ecut=    80.00 Ry     beta= 0.30
     Davidson diagonalization with overlap
     c_bands:  1 eigenvalues not converged
     ethr =  1.72E-06,  avg # of iterations =  4.4

     negative rho (up, down):  1.252E-07 0.000E+00

     total cpu time spent up to now is      168.3 secs

     total energy              =   -2326.92185592 Ry
     estimated scf accuracy    <       0.00134682 Ry

     iteration #  8     ecut=    80.00 Ry     beta= 0.30
     Davidson diagonalization with overlap
     c_bands:  1 eigenvalues not converged
     ethr =  1.46E-06,  avg # of iterations =  7.6

     negative rho (up, down):  5.843E-08 0.000E+00

     total cpu time spent up to now is      187.6 secs

     total energy              =   -2326.92186003 Ry
     estimated scf accuracy    <       0.00076089 Ry

     iteration #  9     ecut=    80.00 Ry     beta= 0.30
     Davidson diagonalization with overlap
     ethr =  8.27E-07,  avg # of iterations =  3.6

     negative rho (up, down):  2.059E-03 0.000E+00

     total cpu time spent up to now is      205.2 secs

     total energy              =   -2326.92191683 Ry
     estimated scf accuracy    <       0.00058116 Ry

     iteration # 10     ecut=    80.00 Ry     beta= 0.30
     Davidson diagonalization with overlap
     ethr =  6.32E-07,  avg # of iterations =  7.3

     negative rho (up, down):  2.610E-03 0.000E+00

     total cpu time spent up to now is      224.0 secs

     total energy              =   -2326.92189564 Ry
     estimated scf accuracy    <       0.00048829 Ry

     iteration # 11     ecut=    80.00 Ry     beta= 0.30
     Davidson diagonalization with overlap
     ethr =  5.31E-07,  avg # of iterations =  1.6

     negative rho (up, down):  4.327E-03 0.000E+00

     total cpu time spent up to now is      240.9 secs

     total energy              =   -2326.92179848 Ry
     estimated scf accuracy    <       0.00040301 Ry

     iteration # 12     ecut=    80.00 Ry     beta= 0.30
     Davidson diagonalization with overlap
     ethr =  4.38E-07,  avg # of iterations =  4.8

     negative rho (up, down):  5.174E-03 0.000E+00

     total cpu time spent up to now is      259.8 secs

     total energy              =   -2326.92175232 Ry
     estimated scf accuracy    <       0.00028228 Ry

     iteration # 13     ecut=    80.00 Ry     beta= 0.30
     Davidson diagonalization with overlap
     ethr =  3.07E-07,  avg # of iterations =  1.9

     negative rho (up, down):  4.902E-03 0.000E+00

     total cpu time spent up to now is      278.7 secs

     total energy              =   -2326.92161580 Ry
     estimated scf accuracy    <       0.00018074 Ry

     iteration # 14     ecut=    80.00 Ry     beta= 0.30
     Davidson diagonalization with overlap
     ethr =  1.96E-07,  avg # of iterations =  6.1

     negative rho (up, down):  3.891E-03 0.000E+00

     total cpu time spent up to now is      298.3 secs

     total energy              =   -2326.92168198 Ry
     estimated scf accuracy    <       0.00004619 Ry

     iteration # 15     ecut=    80.00 Ry     beta= 0.30
     Davidson diagonalization with overlap
     ethr =  5.02E-08,  avg # of iterations =  2.3

     negative rho (up, down):  1.649E-03 0.000E+00

     total cpu time spent up to now is      315.5 secs

     total energy              =   -2326.92177161 Ry
     estimated scf accuracy    <       0.00002915 Ry

     iteration # 16     ecut=    80.00 Ry     beta= 0.30
     Davidson diagonalization with overlap
     ethr =  3.17E-08,  avg # of iterations =  6.6

     negative rho (up, down):  1.028E-03 0.000E+00

     total cpu time spent up to now is      336.9 secs

     total energy              =   -2326.92178762 Ry
     estimated scf accuracy    <       0.00001004 Ry

     iteration # 17     ecut=    80.00 Ry     beta= 0.30
     Davidson diagonalization with overlap
     ethr =  1.09E-08,  avg # of iterations =  5.2

     negative rho (up, down):  8.867E-04 0.000E+00

     total cpu time spent up to now is      354.8 secs

     total energy              =   -2326.92179280 Ry
     estimated scf accuracy    <       0.00000632 Ry

     iteration # 18     ecut=    80.00 Ry     beta= 0.30
     Davidson diagonalization with overlap
     ethr =  6.87E-09,  avg # of iterations =  5.5

     negative rho (up, down):  6.211E-04 0.000E+00

     total cpu time spent up to now is      374.1 secs

     total energy              =   -2326.92179206 Ry
     estimated scf accuracy    <       0.00000348 Ry

     iteration # 19     ecut=    80.00 Ry     beta= 0.30
     Davidson diagonalization with overlap
     ethr =  3.78E-09,  avg # of iterations =  2.2

     negative rho (up, down):  4.102E-04 0.000E+00

     total cpu time spent up to now is      393.6 secs

     total energy              =   -2326.92179832 Ry
     estimated scf accuracy    <       0.00000102 Ry

     iteration # 20     ecut=    80.00 Ry     beta= 0.30
     Davidson diagonalization with overlap
     ethr =  1.11E-09,  avg # of iterations =  3.4

     negative rho (up, down):  2.614E-04 0.000E+00

     total cpu time spent up to now is      412.7 secs

     total energy              =   -2326.92180161 Ry
     estimated scf accuracy    <       0.00000038 Ry

     iteration # 21     ecut=    80.00 Ry     beta= 0.30
     Davidson diagonalization with overlap
     ethr =  4.12E-10,  avg # of iterations =  4.3

     negative rho (up, down):  1.985E-04 0.000E+00

     total cpu time spent up to now is      434.6 secs

     total energy              =   -2326.92180192 Ry
     estimated scf accuracy    <       0.00000008 Ry

     iteration # 22     ecut=    80.00 Ry     beta= 0.30
     Davidson diagonalization with overlap
     ethr =  8.61E-11,  avg # of iterations =  2.2

     negative rho (up, down):  1.735E-04 0.000E+00

     total cpu time spent up to now is      453.1 secs

     total energy              =   -2326.92180185 Ry
     estimated scf accuracy    <       0.00000002 Ry

     iteration # 23     ecut=    80.00 Ry     beta= 0.30
     Davidson diagonalization with overlap
     ethr =  2.40E-11,  avg # of iterations =  2.5

     negative rho (up, down):  1.936E-04 0.000E+00

     total cpu time spent up to now is      473.7 secs

     End of self-consistent calculation

          k = 0.0000 0.0000 0.0000 ( 37787 PWs)   bands (ev):

   -61.8967 -61.8958 -48.2916 -48.2916 -48.2913 -48.2913 -48.2900 -48.2900
   -48.2899 -48.2899 -48.2461 -48.2461 -48.2457 -48.2457 -48.2445 -48.2445
   -48.2444 -48.2444 -48.2274 -48.2269 -48.2259 -48.2256 -36.0152 -36.0141
   -35.8999 -35.8998 -35.8985 -35.8985 -15.2948 -15.2913 -14.4766 -14.4751
    -6.4379  -6.4349  -3.3613  -3.3613  -3.3552  -3.3552  -3.3372  -3.3364
    -1.5909  -1.5892  -1.0649  -1.0649  -1.0620  -1.0620   0.2283   0.2283
     0.2311   0.2312   2.9468   2.9469   2.9490   2.9490   3.0914

          k = 0.0000 0.0722 0.0000 ( 37755 PWs)   bands (ev):

   -61.8958 -61.8949 -48.2916 -48.2915 -48.2913 -48.2911 -48.2900 -48.2899
   -48.2898 -48.2897 -48.2461 -48.2461 -48.2458 -48.2458 -48.2446 -48.2445
   -48.2444 -48.2444 -48.2273 -48.2269 -48.2258 -48.2256 -36.0129 -36.0119
   -35.9105 -35.9091 -35.9023 -35.9010 -15.2380 -15.2345 -14.4471 -14.4455
    -6.3601  -6.3571  -3.8338  -3.8299  -3.3293  -3.3232  -2.9338  -2.9316
    -1.6289  -1.6277  -1.2546  -1.2518  -1.2119  -1.2088   0.1207   0.1229
     0.3414   0.3438   2.6218   2.6301   2.8982   2.9003   3.1992

          k = 0.0000 0.1443 0.0000 ( 37697 PWs)   bands (ev):

   -61.8930 -61.8921 -48.2916 -48.2913 -48.2909 -48.2906 -48.2900 -48.2899
   -48.2893 -48.2891 -48.2463 -48.2462 -48.2459 -48.2458 -48.2448 -48.2447
   -48.2445 -48.2444 -48.2270 -48.2266 -48.2255 -48.2253 -36.0066 -36.0055
   -35.9406 -35.9393 -35.9092 -35.9079 -15.0716 -15.0682 -14.3609 -14.3592
    -6.1349  -6.1319  -4.3196  -4.3152  -3.2540  -3.2479  -2.7144  -2.7128
    -2.0780  -2.0757  -1.4994  -1.4960  -1.4564  -1.4556   0.0021   0.0037
     0.5319   0.5338   2.0286   2.0363   2.7985   2.8004   3.4553

          k = 0.0000 0.2165 0.0000 ( 37653 PWs)   bands (ev):

   -61.8889 -61.8880 -48.2915 -48.2913 -48.2901 -48.2899 -48.2899 -48.2898
   -48.2885 -48.2883 -48.2467 -48.2463 -48.2461 -48.2458 -48.2452 -48.2448
   -48.2447 -48.2444 -48.2267 -48.2262 -48.2252 -48.2249 -35.9973 -35.9963
   -35.9851 -35.9837 -35.9196 -35.9183 -14.8087 -14.8054 -14.2246 -14.2226
    -5.7942  -5.7912  -4.7490  -4.7445  -3.2584  -3.2553  -3.2023  -3.1964
    -2.4354  -2.4346  -1.7231  -1.7194  -1.5573  -1.5567  -0.0290  -0.0277
     0.6384   0.6397   1.6671   1.6746   2.7331   2.7348   3.8262

          k = 0.0000 0.2887 0.0000 ( 37721 PWs)   bands (ev):

   -61.8840 -61.8832 -48.2916 -48.2912 -48.2900 -48.2898 -48.2892 -48.2889
   -48.2876 -48.2874 -48.2471 -48.2465 -48.2462 -48.2459 -48.2456 -48.2450
   -48.2448 -48.2445 -48.2262 -48.2257 -48.2247 -48.2244 -36.0381 -36.0367
   -35.9854 -35.9844 -35.9318 -35.9304 -14.4755 -14.4722 -14.0467 -14.0445
    -5.4828  -5.4792  -4.9889  -4.9849  -4.2804  -4.2769  -3.2568  -3.2511
    -2.6208  -2.6206  -1.8103  -1.8096  -1.7667  -1.7627   0.0523   0.0535
     0.6434   0.6445   1.7736   1.7815   2.7342   2.7361   4.3037

          k = 0.0000 0.3608 0.0000 ( 37749 PWs)   bands (ev):

   -61.8792 -61.8783 -48.2916 -48.2911 -48.2900 -48.2896 -48.2883 -48.2880
   -48.2867 -48.2866 -48.2475 -48.2466 -48.2464 -48.2460 -48.2460 -48.2451
   -48.2450 -48.2445 -48.2258 -48.2253 -48.2243 -48.2240 -36.0901 -36.0886
   -35.9741 -35.9731 -35.9439 -35.9426 -14.1272 -14.1240 -13.8273 -13.8248
    -5.5996  -5.5953  -5.2377  -5.2346  -4.7248  -4.7216  -3.4053  -3.3999
    -2.9809  -2.9808  -2.0756  -2.0749  -1.6615  -1.6575   0.3120   0.3129
     0.6204   0.6216   2.1926   2.2003   2.7708   2.7729   4.8608

          k = 0.0000 0.4330 0.0000 ( 37785 PWs)   bands (ev):

   -61.8751 -61.8742 -48.2917 -48.2911 -48.2901 -48.2896 -48.2875 -48.2872
   -48.2859 -48.2858 -48.2479 -48.2467 -48.2465 -48.2464 -48.2460 -48.2453
   -48.2451 -48.2446 -48.2254 -48.2249 -48.2239 -48.2236 -36.1338 -36.1324
   -35.9645 -35.9635 -35.9542 -35.9529 -13.8633 -13.8599 -13.5484 -13.5458
    -6.2000  -6.1962  -5.5776  -5.5744  -4.5350  -4.5325  -3.5645  -3.5592
    -3.2353  -3.2346  -2.2490  -2.2484  -1.5278  -1.5242   0.6349   0.6366
     0.6770   0.6775   2.7089   2.7153   2.8073   2.8096   5.1475

          k = 0.0000 0.5052 0.0000 ( 37822 PWs)   bands (ev):

   -61.8723 -61.8714 -48.2917 -48.2910 -48.2902 -48.2895 -48.2870 -48.2867
   -48.2854 -48.2853 -48.2481 -48.2468 -48.2466 -48.2466 -48.2461 -48.2453
   -48.2452 -48.2446 -48.2251 -48.2247 -48.2236 -48.2234 -36.1629 -36.1614
   -35.9611 -35.9597 -35.9580 -35.9570 -13.7181 -13.7145 -13.2865 -13.2840
    -6.7575  -6.7537  -5.5989  -5.5964  -4.7021  -4.6998  -3.6766  -3.6713
    -3.1153  -3.1139  -2.3772  -2.3766  -1.4406  -1.4373   0.6840   0.6863
     1.0184   1.0186   2.8298   2.8323   3.1573   3.1612   4.6743

          k = 0.0000-0.5774 0.0000 ( 37832 PWs)   bands (ev):

   -61.8713 -61.8705 -48.2917 -48.2910 -48.2902 -48.2895 -48.2868 -48.2866
   -48.2852 -48.2851 -48.2482 -48.2468 -48.2467 -48.2467 -48.2461 -48.2454
   -48.2452 -48.2446 -48.2250 -48.2246 -48.2235 -48.2233 -36.1730 -36.1716
   -35.9635 -35.9622 -35.9557 -35.9548 -13.6706 -13.6670 -13.1799 -13.1774
    -6.9628  -6.9590  -5.5692  -5.5673  -4.8450  -4.8423  -3.7162  -3.7110
    -2.9867  -2.9851  -2.4456  -2.4451  -1.4129  -1.4098   0.7116   0.7140
     1.1653   1.1654   2.8371   2.8397   3.3781   3.3804   4.3484

          k = 0.0625 0.1083 0.0000 ( 37709 PWs)   bands (ev):

   -61.8939 -61.8930 -48.2916 -48.2913 -48.2911 -48.2908 -48.2900 -48.2898
   -48.2895 -48.2893 -48.2463 -48.2461 -48.2459 -48.2458 -48.2448 -48.2446
   -48.2445 -48.2444 -48.2271 -48.2267 -48.2256 -48.2254 -36.0086 -36.0076
   -35.9305 -35.9292 -35.9073 -35.9060 -15.1264 -15.1229 -14.3893 -14.3876
    -6.2082  -6.2052  -4.1906  -4.1864  -3.2828  -3.2767  -2.7348  -2.7332
    -1.8771  -1.8755  -1.4996  -1.4963  -1.3812  -1.3799   0.0626   0.0644
     0.4317   0.4336   2.2560   2.2644   2.7543   2.7564   3.3775

          k = 0.0625 0.1804 0.0000 ( 37703 PWs)   bands (ev):

   -61.8905 -61.8896 -48.2915 -48.2913 -48.2904 -48.2901 -48.2899 -48.2899
   -48.2889 -48.2887 -48.2466 -48.2462 -48.2460 -48.2458 -48.2451 -48.2447
   -48.2446 -48.2445 -48.2268 -48.2264 -48.2253 -48.2250 -36.0007 -35.9996
   -35.9671 -35.9658 -35.9168 -35.9154 -14.9113 -14.9079 -14.2782 -14.2763
    -5.9202  -5.9172  -4.6044  -4.5998  -3.2772  -3.2713  -2.8115  -2.8093
    -2.4541  -2.4520  -1.7543  -1.7513  -1.4130  -1.4122   0.0620   0.0634
     0.4323   0.4335   1.9364   1.9442   2.5804   2.5823   3.6864

          k = 0.0625 0.2526 0.0000 ( 37702 PWs)   bands (ev):

   -61.8860 -61.8851 -48.2915 -48.2912 -48.2899 -48.2897 -48.2896 -48.2893
   -48.2880 -48.2878 -48.2469 -48.2464 -48.2461 -48.2459 -48.2455 -48.2449
   -48.2447 -48.2445 -48.2264 -48.2259 -48.2249 -48.2246 -36.0149 -36.0135
   -35.9900 -35.9890 -35.9291 -35.9278 -14.6112 -14.6079 -14.1221 -14.1200
    -5.5527  -5.5496  -4.9486  -4.9441  -3.8362  -3.8325  -3.2230  -3.2182
    -2.6000  -2.5984  -1.9643  -1.9619  -1.4444  -1.4432  -0.0018  -0.0009
     0.5123   0.5133   1.8291   1.8358   2.5514   2.5540   4.1094

          k = 0.0625 0.3248 0.0000 ( 37734 PWs)   bands (ev):

   -61.8811 -61.8802 -48.2915 -48.2911 -48.2899 -48.2896 -48.2887 -48.2884
   -48.2871 -48.2870 -48.2473 -48.2465 -48.2463 -48.2460 -48.2459 -48.2451
   -48.2449 -48.2446 -48.2259 -48.2255 -48.2244 -48.2242 -36.0658 -36.0644
   -35.9788 -35.9778 -35.9425 -35.9412 -14.2628 -14.2596 -13.9286 -13.9262
    -5.4457  -5.4415  -4.9247  -4.9217  -4.7804  -4.7767  -3.4624  -3.4580
    -2.7255  -2.7244  -2.2793  -2.2771  -1.4343  -1.4322   0.0488   0.0496
     0.6610   0.6618   1.9660   1.9714   2.6439   2.6477   4.6336

          k = 0.0625 0.3969 0.0000 ( 37770 PWs)   bands (ev):

   -61.8766 -61.8758 -48.2915 -48.2910 -48.2900 -48.2895 -48.2879 -48.2876
   -48.2863 -48.2862 -48.2477 -48.2467 -48.2464 -48.2462 -48.2460 -48.2453
   -48.2450 -48.2446 -48.2255 -48.2251 -48.2240 -48.2238 -36.1125 -36.1111
   -35.9683 -35.9673 -35.9548 -35.9535 -13.9466 -13.9434 -13.6844 -13.6818
    -5.8158  -5.8118  -5.4815  -5.4782  -4.5592  -4.5564  -3.7075  -3.7034
    -2.9897  -2.9883  -2.4974  -2.4954  -1.3664  -1.3640   0.2458   0.2463
     0.8179   0.8189   2.2535   2.2567   2.8160   2.8211   5.1890

          k = 0.0625 0.4691 0.0000 ( 37798 PWs)   bands (ev):

   -61.8732 -61.8723 -48.2916 -48.2909 -48.2900 -48.2894 -48.2873 -48.2870
   -48.2857 -48.2856 -48.2480 -48.2469 -48.2465 -48.2465 -48.2461 -48.2454
   -48.2451 -48.2447 -48.2252 -48.2247 -48.2237 -48.2234 -36.1481 -36.1466
   -35.9646 -35.9633 -35.9599 -35.9589 -13.7491 -13.7457 -13.3988 -13.3962
    -6.4708  -6.4670  -5.5879  -5.5850  -4.5537  -4.5513  -3.8013  -3.7969
    -3.1046  -3.1029  -2.6027  -2.6011  -1.3264  -1.3241   0.4874   0.4886
     1.0002   1.0010   2.4785   2.4806   3.0736   3.0782   5.1378

          k = 0.0625 0.5413 0.0000 ( 37791 PWs)   bands (ev):

   -61.8713 -61.8705 -48.2916 -48.2908 -48.2900 -48.2893 -48.2869 -48.2867
   -48.2853 -48.2853 -48.2481 -48.2470 -48.2467 -48.2465 -48.2461 -48.2455
   -48.2451 -48.2447 -48.2250 -48.2246 -48.2235 -48.2233 -36.1672 -36.1657
   -35.9695 -35.9682 -35.9557 -35.9548 -13.6560 -13.6524 -13.2036 -13.2011
    -6.8576  -6.8538  -5.5703  -5.5681  -4.7635  -4.7610  -3.8189  -3.8141
    -2.9915  -2.9897  -2.6750  -2.6737  -1.3275  -1.3253   0.6673   0.6694
     1.1300   1.1303   2.5758   2.5780   3.3176   3.3203   4.6463

          k = 0.1250 0.2165 0.0000 ( 37731 PWs)   bands (ev):

   -61.8867 -61.8858 -48.2914 -48.2912 -48.2898 -48.2898 -48.2897 -48.2895
   -48.2882 -48.2881 -48.2469 -48.2463 -48.2461 -48.2460 -48.2454 -48.2448
   -48.2446 -48.2446 -48.2265 -48.2260 -48.2250 -48.2247 -36.0050 -36.0036
   -35.9919 -35.9908 -35.9297 -35.9284 -14.6577 -14.6544 -14.1480 -14.1459
    -5.5834  -5.5804  -4.9162  -4.9116  -3.6945  -3.6901  -3.0098  -3.0078
    -2.8644  -2.8602  -1.9320  -1.9300  -1.3229  -1.3221   0.0526   0.0533
     0.3134   0.3147   2.1613   2.1703   2.1845   2.1862   4.0464

          k = 0.1250 0.2887 0.0000 ( 37723 PWs)   bands (ev):

   -61.8822 -61.8813 -48.2913 -48.2910 -48.2898 -48.2895 -48.2891 -48.2888
   -48.2875 -48.2873 -48.2473 -48.2464 -48.2462 -48.2461 -48.2458 -48.2449
   -48.2448 -48.2447 -48.2261 -48.2256 -48.2245 -48.2243 -36.0486 -36.0472
   -35.9815 -35.9805 -35.9457 -35.9443 -14.3353 -14.3321 -13.9808 -13.9784
    -5.2696  -5.2657  -5.0805  -5.0769  -4.4624  -4.4586  -3.4623  -3.4592
    -2.9541  -2.9504  -2.1999  -2.1985  -1.1964  -1.1952  -0.1600  -0.1595
     0.6062   0.6072   1.8731   1.8746   2.4722   2.4810   4.5191

          k = 0.1250 0.3608 0.0000 ( 37761 PWs)   bands (ev):

   -61.8777 -61.8768 -48.2913 -48.2908 -48.2897 -48.2893 -48.2883 -48.2880
   -48.2867 -48.2866 -48.2476 -48.2467 -48.2464 -48.2461 -48.2461 -48.2452
   -48.2449 -48.2448 -48.2256 -48.2252 -48.2241 -48.2239 -36.0915 -36.0900
   -35.9717 -35.9707 -35.9614 -35.9601 -13.9951 -13.9920 -13.7798 -13.7772
    -5.4726  -5.4682  -5.2623  -5.2588  -4.6663  -4.6634  -3.8503  -3.8470
    -3.0534  -3.0503  -2.6301  -2.6287  -1.0656  -1.0641  -0.1247  -0.1243
     0.8888   0.8896   1.7912   1.7926   2.7822   2.7899   5.0806

          k = 0.1250 0.4330 0.0000 ( 37768 PWs)   bands (ev):

   -61.8739 -61.8730 -48.2912 -48.2906 -48.2897 -48.2891 -48.2877 -48.2874
   -48.2861 -48.2860 -48.2478 -48.2469 -48.2464 -48.2464 -48.2462 -48.2454
   -48.2449 -48.2448 -48.2253 -48.2248 -48.2238 -48.2235 -36.1275 -36.1260
   -35.9768 -35.9754 -35.9614 -35.9604 -13.7452 -13.7419 -13.5167 -13.5140
    -6.0622  -6.0584  -5.5213  -5.5178  -4.3956  -4.3930  -4.0776  -4.0740
    -3.1649  -3.1623  -2.9788  -2.9770  -1.0335  -1.0323   0.1187   0.1193
     1.0790   1.0802   1.9011   1.9025   3.0629   3.0683   5.5316

          k = 0.1250 0.5052 0.0000 ( 37794 PWs)   bands (ev):

   -61.8713 -61.8705 -48.2912 -48.2905 -48.2896 -48.2890 -48.2873 -48.2870
   -48.2857 -48.2856 -48.2480 -48.2471 -48.2465 -48.2464 -48.2462 -48.2456
   -48.2449 -48.2449 -48.2250 -48.2246 -48.2235 -48.2233 -36.1514 -36.1499
   -35.9858 -35.9845 -35.9558 -35.9548 -13.6133 -13.6098 -13.2677 -13.2651
    -6.5655  -6.5617  -5.5545  -5.5517  -4.5683  -4.5657  -4.0293  -4.0254
    -3.2463  -3.2440  -3.0427  -3.0408  -1.0907  -1.0897   0.4565   0.4577
     1.1284   1.1295   2.0678   2.0693   3.2512   3.2543   5.2710

          k = 0.1250 0.5774 0.0000 ( 37780 PWs)   bands (ev):

   -61.8704 -61.8696 -48.2912 -48.2904 -48.2896 -48.2889 -48.2871 -48.2869
   -48.2855 -48.2855 -48.2481 -48.2472 -48.2466 -48.2464 -48.2463 -48.2457
   -48.2449 -48.2449 -48.2250 -48.2245 -48.2234 -48.2232 -36.1597 -36.1583
   -35.9891 -35.9877 -35.9537 -35.9528 -13.5696 -13.5660 -13.1684 -13.1658
    -6.7490  -6.7452  -5.5465  -5.5440  -4.6829  -4.6802  -4.0257  -4.0217
    -3.2755  -3.2733  -2.9973  -2.9954  -1.1297  -1.1288   0.6580   0.6597
     1.0800   1.0807   2.1508   2.1525   3.3163   3.3186   5.0242

          k = 0.1875 0.3248 0.0000 ( 37725 PWs)   bands (ev):

   -61.8781 -61.8772 -48.2911 -48.2906 -48.2896 -48.2891 -48.2885 -48.2882
   -48.2869 -48.2868 -48.2475 -48.2466 -48.2464 -48.2462 -48.2461 -48.2450
   -48.2449 -48.2448 -48.2257 -48.2252 -48.2242 -48.2239 -36.0819 -36.0805
   -35.9738 -35.9727 -35.9650 -35.9637 -14.0105 -14.0074 -13.8145 -13.8119
    -5.3403  -5.3358  -5.0936  -5.0899  -4.7553  -4.7525  -3.8533  -3.8508
    -3.3342  -3.3303  -2.5108  -2.5097  -0.8971  -0.8958  -0.3046  -0.3042
     0.8871   0.8880   1.6044   1.6051   2.7710   2.7796   5.0354

          k = 0.1875 0.3969 0.0000 ( 37753 PWs)   bands (ev):

   -61.8743 -61.8734 -48.2909 -48.2903 -48.2893 -48.2888 -48.2881 -48.2878
   -48.2865 -48.2863 -48.2478 -48.2468 -48.2465 -48.2463 -48.2462 -48.2453
   -48.2450 -48.2448 -48.2253 -48.2249 -48.2238 -48.2236 -36.1107 -36.1092
   -35.9890 -35.9877 -35.9623 -35.9613 -13.7075 -13.7044 -13.6171 -13.6143
    -5.6933  -5.6896  -5.4440  -5.4400  -4.3548  -4.3520  -4.2053  -4.2026
    -3.6599  -3.6564  -2.9096  -2.9083  -0.6908  -0.6898  -0.2366  -0.2363
     1.1085   1.1094   1.5238   1.5245   3.0649   3.0708   5.6027

          k = 0.1875 0.4691 0.0000 ( 37759 PWs)   bands (ev):

   -61.8713 -61.8705 -48.2907 -48.2900 -48.2892 -48.2885 -48.2877 -48.2875
   -48.2861 -48.2860 -48.2479 -48.2471 -48.2466 -48.2464 -48.2462 -48.2456
   -48.2451 -48.2448 -48.2250 -48.2246 -48.2235 -48.2233 -36.1316 -36.1301
   -36.0061 -36.0047 -35.9558 -35.9548 -13.5471 -13.5438 -13.3548 -13.3520
    -6.1776  -6.1739  -5.5113  -5.5077  -4.4273  -4.4243  -4.1186  -4.1158
    -3.8854  -3.8826  -3.1796  -3.1780  -0.7422  -0.7418   0.1052   0.1058
     1.1485   1.1497   1.6747   1.6756   3.2303   3.2336   5.7645

          k = 0.1875 0.5413 0.0000 ( 37793 PWs)   bands (ev):

   -61.8698 -61.8689 -48.2906 -48.2899 -48.2891 -48.2884 -48.2875 -48.2873
   -48.2859 -48.2858 -48.2479 -48.2473 -48.2466 -48.2465 -48.2462 -48.2458
   -48.2452 -48.2448 -48.2249 -48.2245 -48.2234 -48.2232 -36.1425 -36.1411
   -36.0158 -36.0144 -35.9522 -35.9512 -13.4695 -13.4661 -13.1853 -13.1825
    -6.4549  -6.4512  -5.5398  -5.5366  -4.5208  -4.5178  -4.1613  -4.1583
    -3.9602  -3.9580  -3.2008  -3.1989  -0.8301  -0.8298   0.4719   0.4727
     1.0010   1.0023   1.8855   1.8865   3.2267   3.2289   5.6524

          k = 0.2500 0.4330 0.0000 ( 37711 PWs)   bands (ev):

   -61.8713 -61.8705 -48.2904 -48.2898 -48.2889 -48.2883 -48.2880 -48.2876
   -48.2864 -48.2862 -48.2478 -48.2470 -48.2467 -48.2464 -48.2462 -48.2455
   -48.2453 -48.2448 -48.2250 -48.2246 -48.2235 -48.2233 -36.1212 -36.1197
   -36.0167 -36.0153 -35.9558 -35.9548 -13.4853 -13.4821 -13.4251 -13.4222
    -5.9571  -5.9534  -5.4797  -5.4758  -4.4088  -4.4063  -4.2488  -4.2455
    -4.0443  -4.0414  -3.2753  -3.2740  -0.3314  -0.3309  -0.3106  -0.3096
     1.1440   1.1449   1.5500   1.5504   3.2287   3.2321   5.9707

          k = 0.2500 0.5052 0.0000 ( 37776 PWs)   bands (ev):

   -61.8694 -61.8685 -48.2901 -48.2894 -48.2885 -48.2880 -48.2879 -48.2877
   -48.2864 -48.2862 -48.2478 -48.2472 -48.2469 -48.2463 -48.2462 -48.2457
   -48.2455 -48.2447 -48.2249 -48.2244 -48.2233 -48.2232 -36.1237 -36.1223
   -36.0398 -36.0384 -35.9514 -35.9504 -13.3756 -13.3723 -13.2381 -13.2352
    -6.1048  -6.1012  -5.5315  -5.5277  -4.6682  -4.6647  -4.3860  -4.3839
    -3.9705  -3.9682  -3.5132  -3.5116  -0.4337  -0.4336   0.0620   0.0625
     0.9642   0.9655   1.8415   1.8421   3.1567   3.1590   5.7848

          k = 0.2500 0.5774 0.0000 ( 37791 PWs)   bands (ev):

   -61.8687 -61.8678 -48.2899 -48.2892 -48.2884 -48.2880 -48.2877 -48.2877
   -48.2864 -48.2863 -48.2478 -48.2474 -48.2469 -48.2463 -48.2462 -48.2459
   -48.2455 -48.2447 -48.2248 -48.2244 -48.2233 -48.2231 -36.1231 -36.1217
   -36.0493 -36.0479 -35.9498 -35.9488 -13.3370 -13.3336 -13.1683 -13.1653
    -6.1477  -6.1441  -5.5617  -5.5579  -4.8211  -4.8176  -4.2063  -4.2041
    -4.1867  -4.1848  -3.5140  -3.5122  -0.4846  -0.4845   0.3207   0.3207
     0.7570   0.7589   2.0603   2.0611   3.0197   3.0215   5.6852

          k = 0.3125 0.5413 0.0000 ( 37789 PWs)   bands (ev):

   -61.8683 -61.8675 -48.2894 -48.2888 -48.2884 -48.2881 -48.2879 -48.2873
   -48.2868 -48.2866 -48.2476 -48.2474 -48.2471 -48.2461 -48.2461 -48.2458
   -48.2458 -48.2447 -48.2248 -48.2244 -48.2232 -48.2231 -36.1056 -36.1042
   -36.0718 -36.0704 -35.9490 -35.9480 -13.2575 -13.2542 -13.1957 -13.1926
    -5.8435  -5.8399  -5.5714  -5.5674  -5.2607  -5.2573  -4.2194  -4.2175
    -3.8813  -3.8793  -3.8788  -3.8778  -0.1472  -0.1467   0.0302   0.0303
     0.6573   0.6595   2.2683   2.2692   2.8325   2.8341   5.6174

     the Fermi energy is    -0.2963 ev

!    total energy              =   -2326.92180171 Ry
     total all-electron energy =    -35628.669631 Ry
     estimated scf accuracy    <          4.7E-09 Ry
     smearing contrib. (-TS)   =       0.00090272 Ry
     internal energy E=F+TS    =   -2326.92270442 Ry

     The total energy is F=E-TS. E is the sum of the following terms:
     one-electron contribution =  -17939.56961932 Ry
     hartree contribution      =    8958.01517846 Ry
     xc contribution           =    -152.42420358 Ry
     ewald contribution        =    7817.57046827 Ry
     one-center paw contrib.   =   -1010.51452825 Ry

     convergence has been achieved in  23 iterations

     Writing all to output data dir ./tmp/cleave_031/mose2_cleave_031.save/ :
     XML data file, charge density, pseudopotentials, collected wavefunctions

     init_run     :     11.70s CPU     11.88s WALL (       1 calls)
     electrons    :    451.32s CPU    461.66s WALL (       1 calls)

     Called by init_run:
     wfcinit      :      5.34s CPU      5.37s WALL (       1 calls)
     potinit      :      5.71s CPU      5.75s WALL (       1 calls)
     hinit0       :      0.05s CPU      0.06s WALL (       1 calls)

     Called by electrons:
     c_bands      :    376.27s CPU    380.83s WALL (      24 calls)
     sum_band     :     49.31s CPU     52.09s WALL (      24 calls)
     v_of_rho     :     15.20s CPU     16.04s WALL (      24 calls)
     newd         :      9.06s CPU     11.25s WALL (      24 calls)
     PAW_pot      :      1.52s CPU      1.56s WALL (      24 calls)
     mix_rho      :      5.79s CPU      5.84s WALL (      24 calls)
     vdW_kernel   :      5.26s CPU      5.27s WALL (       1 calls)

     Called by c_bands:
     init_us_2    :      2.83s CPU      2.84s WALL (    1470 calls)
     cegterg      :    367.38s CPU    371.73s WALL (     720 calls)

     Called by *egterg:
     cdiaghg      :     11.55s CPU     11.58s WALL (    3781 calls)
     h_psi        :    154.60s CPU    155.88s WALL (    3841 calls)
     s_psi        :     28.86s CPU     28.89s WALL (    3841 calls)
     g_psi        :      0.48s CPU      0.48s WALL (    3091 calls)

     Called by h_psi:
     h_psi:calbec :     47.20s CPU     47.84s WALL (    3841 calls)
     vloc_psi     :     71.73s CPU     72.33s WALL (    3841 calls)
                                        0.00s GPU  (    3841 calls)
     add_vuspsi   :     35.18s CPU     35.22s WALL (    3841 calls)

     General routines
     calbec       :     67.44s CPU     68.35s WALL (    4561 calls)
     fft          :      6.30s CPU      6.44s WALL (    1511 calls)
     ffts         :      2.15s CPU      2.16s WALL (    2754 calls)
     fftw         :     80.68s CPU     81.38s WALL (  218660 calls)
     interpolate  :      0.11s CPU      0.11s WALL (      24 calls)

     Parallel routines

     PWSCF        :   7m43.88s CPU   7m54.95s WALL


   This run was terminated on:  12:56:26  20Jun2026            

=------------------------------------------------------------------------------=
   JOB DONE.
=------------------------------------------------------------------------------=
Note: The following floating-point exceptions are signalling: IEEE_UNDERFLOW_FLAG IEEE_DENORMAL
Note: The following floating-point exceptions are signalling: IEEE_UNDERFLOW_FLAG IEEE_DENORMAL
Note: The following floating-point exceptions are signalling: IEEE_UNDERFLOW_FLAG IEEE_DENORMAL
Note: The following floating-point exceptions are signalling: IEEE_UNDERFLOW_FLAG IEEE_DENORMAL
Note: The following floating-point exceptions are signalling: IEEE_UNDERFLOW_FLAG IEEE_DENORMAL
Note: The following floating-point exceptions are signalling: IEEE_UNDERFLOW_FLAG IEEE_DENORMAL
Note: The following floating-point exceptions are signalling: IEEE_UNDERFLOW_FLAG IEEE_DENORMAL
Note: The following floating-point exceptions are signalling: IEEE_UNDERFLOW_FLAG IEEE_DENORMAL
Note: The following floating-point exceptions are signalling: IEEE_UNDERFLOW_FLAG IEEE_DENORMAL
Note: The following floating-point exceptions are signalling: IEEE_UNDERFLOW_FLAG IEEE_DENORMAL
Note: The following floating-point exceptions are signalling: IEEE_UNDERFLOW_FLAG IEEE_DENORMAL
Note: The following floating-point exceptions are signalling: IEEE_UNDERFLOW_FLAG IEEE_DENORMAL
Note: The following floating-point exceptions are signalling: IEEE_UNDERFLOW_FLAG IEEE_DENORMAL
Note: The following floating-point exceptions are signalling: IEEE_UNDERFLOW_FLAG IEEE_DENORMAL
Note: The following floating-point exceptions are signalling: IEEE_UNDERFLOW_FLAG IEEE_DENORMAL
Note: The following floating-point exceptions are signalling: IEEE_UNDERFLOW_FLAG IEEE_DENORMAL
Note: The following floating-point exceptions are signalling: IEEE_UNDERFLOW_FLAG IEEE_DENORMAL
Note: The following floating-point exceptions are signalling: IEEE_UNDERFLOW_FLAG IEEE_DENORMAL
Note: The following floating-point exceptions are signalling: IEEE_UNDERFLOW_FLAG IEEE_DENORMAL
Note: The following floating-point exceptions are signalling: IEEE_UNDERFLOW_FLAG IEEE_DENORMAL
Note: The following floating-point exceptions are signalling: IEEE_UNDERFLOW_FLAG IEEE_DENORMAL
Note: The following floating-point exceptions are signalling: IEEE_UNDERFLOW_FLAG IEEE_DENORMAL
Note: The following floating-point exceptions are signalling: IEEE_UNDERFLOW_FLAG IEEE_DENORMAL
Note: The following floating-point exceptions are signalling: IEEE_UNDERFLOW_FLAG IEEE_DENORMAL
