
     Program PWSCF v.7.5 starts on 20Jun2026 at  9:41:48 

     This program is part of the open-source Quantum ESPRESSO suite
     for quantum simulation of materials; please cite
         "P. Giannozzi et al., J. Phys.:Condens. Matter 21 395502 (2009);
         "P. Giannozzi et al., J. Phys.:Condens. Matter 29 465901 (2017);
         "P. Giannozzi et al., J. Chem. Phys. 152 154105 (2020);
          URL http://www.quantum-espresso.org", 
     in publications or presentations arising from this work. More details at
     http://www.quantum-espresso.org/quote

     Parallel version (MPI), running on    24 processors

     MPI processes distributed on     1 nodes
     6168 MiB available memory on the printing compute node when the environment starts

     Waiting for input...
     Reading input from standard input

     Current dimensions of program PWSCF are:
     Max number of different atomic species (ntypx) = 10
     Max number of k-points (npk) =  40000
     Max angular momentum in pseudopotentials (lmaxx) =  4
     file Mo.pbe-spn-kjpaw_psl.1.0.0.UPF: wavefunction(s)  4S 4D renormalized
     file Se.pbe-dn-kjpaw_psl.1.0.0.UPF: wavefunction(s)  4S 4P 3D renormalized

     IMPORTANT: XC functional enforced from input :
     Exchange-correlation= VDW-DF2-B86R
                           (   1   4  26   0   2   0   0)
     Any further DFT definition will be discarded
     Please, verify this is what you really want


     R & G space division:  proc/nbgrp/npool/nimage =      24
     Subspace diagonalization in iterative solution of the eigenvalue problem:
     a serial algorithm will be used


     Parallelization info
     --------------------
     sticks:   dense  smooth     PW     G-vecs:    dense   smooth      PW
     Min          69      35     10                35537    12585    1924
     Max          70      36     11                35620    12648    1981
     Sum        1675     847    241               853823   302525   46513

     Using Slab Decomposition



     bravais-lattice index     =            4
     lattice parameter (alat)  =       6.1794  a.u.
     unit-cell volume          =    3124.5879 (a.u.)^3
     number of atoms/cell      =            6
     number of atomic types    =            2
     number of electrons       =        92.00
     number of Kohn-Sham states=           55
     kinetic-energy cutoff     =      80.0000  Ry
     charge density cutoff     =     640.0000  Ry
     scf convergence threshold =      1.0E-08
     mixing beta               =       0.3000
     number of iterations used =            8  local-TF  mixing
     Exchange-correlation= VDW-DF2-B86R
                           (   1   4  26   0   2   0   0)

     celldm(1)=   6.179404  celldm(2)=   0.000000  celldm(3)=  15.290520
     celldm(4)=   0.000000  celldm(5)=   0.000000  celldm(6)=   0.000000

     crystal axes: (cart. coord. in units of alat)
               a(1) = (   1.000000   0.000000   0.000000 )  
               a(2) = (  -0.500000   0.866025   0.000000 )  
               a(3) = (   0.000000   0.000000  15.290520 )  

     reciprocal axes: (cart. coord. in units 2 pi/alat)
               b(1) = (  1.000000  0.577350 -0.000000 )  
               b(2) = (  0.000000  1.154701  0.000000 )  
               b(3) = (  0.000000 -0.000000  0.065400 )  


     PseudoPot. # 1 for Mo read from file:
     ./pseudo/Mo.pbe-spn-kjpaw_psl.1.0.0.UPF
     MD5 check sum: 4396e0c640fcce5c25f020efccf1ab12
     Pseudo is Projector augmented-wave + core cor, Zval = 14.0
     Generated using &quot;atomic&quot; code by A. Dal Corso  v.6.3
     Shape of augmentation charge: PSQ
     Using radial grid of 1229 points,  6 beta functions with: 
                l(1) =   0
                l(2) =   0
                l(3) =   1
                l(4) =   1
                l(5) =   2
                l(6) =   2
     Q(r) pseudized with 0 coefficients 


     PseudoPot. # 2 for Se read from file:
     ./pseudo/Se.pbe-dn-kjpaw_psl.1.0.0.UPF
     MD5 check sum: ac240dd2bae32a30e0bf3a38df9c8785
     Pseudo is Projector augmented-wave + core cor, Zval = 16.0
     Generated using &quot;atomic&quot; code by A. Dal Corso  v.6.3
     Shape of augmentation charge: PSQ
     Using radial grid of 1211 points,  6 beta functions with: 
                l(1) =   0
                l(2) =   0
                l(3) =   1
                l(4) =   1
                l(5) =   2
                l(6) =   2
     Q(r) pseudized with 0 coefficients 


     atomic species   valence    mass     pseudopotential
     Mo               14.00    95.96000     Mo( 1.00)
     Se               16.00    78.96000     Se( 1.00)

      6 Sym. Ops. (no inversion) found



   Cartesian axes

     site n.     atom                  positions (alat units)
         1        Se     tau(   1) = (  -0.0000005   0.5773506   6.1238532  )
         2        Mo     tau(   2) = (   0.0000000   0.0000000   6.6502752  )
         3        Se     tau(   3) = (   0.5000005   0.2886748   7.1775994  )
         4        Se     tau(   4) = (  -0.0000005   0.5773506   8.5404740  )
         5        Mo     tau(   5) = (   0.5000005   0.2886748   9.0676606  )
         6        Se     tau(   6) = (   0.0000000   0.0000000   9.5948012  )

     number of k points=    30  Methfessel-Paxton smearing, width (Ry)=  0.0200
                       cart. coord. in units 2pi/alat
        k(    1) = (   0.0000000   0.0000000   0.0000000), wk =   0.0078125
        k(    2) = (   0.0000000   0.0721688   0.0000000), wk =   0.0468750
        k(    3) = (   0.0000000   0.1443376   0.0000000), wk =   0.0468750
        k(    4) = (   0.0000000   0.2165064   0.0000000), wk =   0.0468750
        k(    5) = (   0.0000000   0.2886751   0.0000000), wk =   0.0468750
        k(    6) = (   0.0000000   0.3608439   0.0000000), wk =   0.0468750
        k(    7) = (   0.0000000   0.4330127   0.0000000), wk =   0.0468750
        k(    8) = (   0.0000000   0.5051815   0.0000000), wk =   0.0468750
        k(    9) = (   0.0000000  -0.5773503   0.0000000), wk =   0.0234375
        k(   10) = (   0.0625000   0.1082532   0.0000000), wk =   0.0468750
        k(   11) = (   0.0625000   0.1804220   0.0000000), wk =   0.0937500
        k(   12) = (   0.0625000   0.2525907   0.0000000), wk =   0.0937500
        k(   13) = (   0.0625000   0.3247595   0.0000000), wk =   0.0937500
        k(   14) = (   0.0625000   0.3969283   0.0000000), wk =   0.0937500
        k(   15) = (   0.0625000   0.4690971   0.0000000), wk =   0.0937500
        k(   16) = (   0.0625000   0.5412659   0.0000000), wk =   0.0937500
        k(   17) = (   0.1250000   0.2165064   0.0000000), wk =   0.0468750
        k(   18) = (   0.1250000   0.2886751   0.0000000), wk =   0.0937500
        k(   19) = (   0.1250000   0.3608439   0.0000000), wk =   0.0937500
        k(   20) = (   0.1250000   0.4330127   0.0000000), wk =   0.0937500
        k(   21) = (   0.1250000   0.5051815   0.0000000), wk =   0.0937500
        k(   22) = (   0.1250000   0.5773503   0.0000000), wk =   0.0468750
        k(   23) = (   0.1875000   0.3247595   0.0000000), wk =   0.0468750
        k(   24) = (   0.1875000   0.3969283   0.0000000), wk =   0.0937500
        k(   25) = (   0.1875000   0.4690971   0.0000000), wk =   0.0937500
        k(   26) = (   0.1875000   0.5412659   0.0000000), wk =   0.0937500
        k(   27) = (   0.2500000   0.4330127   0.0000000), wk =   0.0468750
        k(   28) = (   0.2500000   0.5051815   0.0000000), wk =   0.0937500
        k(   29) = (   0.2500000   0.5773503   0.0000000), wk =   0.0468750
        k(   30) = (   0.3125000   0.5412659   0.0000000), wk =   0.0468750

     Dense  grid:   853823 G-vectors     FFT dimensions: (  50,  50, 768)

     Smooth grid:   302525 G-vectors     FFT dimensions: (  36,  36, 540)

     Estimated max dynamical RAM per process >     171.88 MB

     Estimated total dynamical RAM >       4.03 GB

     Initial potential from superposition of free atoms

     starting charge      91.9979, renormalised to      92.0000

     negative rho (up, down):  1.885E-04 0.000E+00


     %%%%%%%%%%%%%%%%%%%%%%%%%%%%%%%%%%%%%%%%%%%%%%%%%%%%%%%%%%%%%%%%%%%%%%%%
     %                                                                      %
     % You are using vdW-DF, which was implemented by the Thonhauser group. %
     % Please cite the following two papers that made this development      %
     % possible and the two reviews that describe the various versions:     %
     %                                                                      %
     %   T. Thonhauser et al., PRL 115, 136402 (2015).                      %
     %   T. Thonhauser et al., PRB 76, 125112 (2007).                       %
     %   K. Berland et al., Rep. Prog. Phys. 78, 066501 (2015).             %
     %   D.C. Langreth et al., J. Phys.: Condens. Matter 21, 084203 (2009). %
     %                                                                      %
     % If you are calculating stress with vdW-DF, please also cite:         %
     %                                                                      %
     %   R. Sabatini et al., J. Phys.: Condens. Matter 24, 424209 (2012).   %
     %                                                                      %
     %%%%%%%%%%%%%%%%%%%%%%%%%%%%%%%%%%%%%%%%%%%%%%%%%%%%%%%%%%%%%%%%%%%%%%%%

     %%%%%%%%%%%%%%%%%%%%%%%%%%%%%%%%%%%%%%%%%%%%%%%%%%%%%%%%%%%%%%%%%%%%%%%%
     %                                                                      %
     %  vdW-DF NEWS:                                                        %
     %                                                                      %
     %  * vdW-DF3 is now available. DOI: 10.1021/acs.jctc.0c00471           %
     %    use with input_dft = 'vdW-DF3-opt1' or 'vdW-DF3-opt2'             %
     %                                                                      %
     %  * Unscreened and range-separated hybrid vdW-DF-cx functionals       %
     %    DOI: 10.1063/1.4986522 and 10.1088/1361-648X/ac2ad2               %
     %    use with input_dft = 'vdW-DF-cx0'    and 'vdW-DF-ahcx'            %
     %  * Unscreened and range-separated hybrid vdW-DF2-b86r functionals    %
     %    DOI: 10.1063/1.4986522 and DOI: 10.1103/PhysRevX.12.041003        %
     %    use with input_dft = 'vdW-DF2-br0' and 'vdW-DF2-ahbr'             %
     %                                                                      %
     %%%%%%%%%%%%%%%%%%%%%%%%%%%%%%%%%%%%%%%%%%%%%%%%%%%%%%%%%%%%%%%%%%%%%%%%


     Starting wfcs are   56 randomized atomic wfcs
     Checking if some PAW data can be deallocated... 

     total cpu time spent up to now is       12.1 secs

     per-process dynamical memory:    79.7 Mb

     Self-consistent Calculation

     iteration #  1     ecut=    80.00 Ry     beta= 0.30
     Davidson diagonalization with overlap
     ethr =  1.00E-02,  avg # of iterations =  4.2

     Threshold (ethr) on eigenvalues was too large:
     Diagonalizing with lowered threshold

     Davidson diagonalization with overlap
     ethr =  4.41E-04,  avg # of iterations =  2.0

     negative rho (up, down):  6.183E-05 0.000E+00

     total cpu time spent up to now is       50.6 secs

     total energy              =   -2326.96757273 Ry
     estimated scf accuracy    <       0.45322231 Ry

     iteration #  2     ecut=    80.00 Ry     beta= 0.30
     Davidson diagonalization with overlap
     ethr =  4.93E-04,  avg # of iterations =  1.1

     negative rho (up, down):  4.116E-05 0.000E+00

     total cpu time spent up to now is       66.3 secs

     total energy              =   -2326.92341022 Ry
     estimated scf accuracy    <       0.22948050 Ry

     iteration #  3     ecut=    80.00 Ry     beta= 0.30
     Davidson diagonalization with overlap
     ethr =  2.49E-04,  avg # of iterations =  5.1

     negative rho (up, down):  2.569E-05 0.000E+00

     total cpu time spent up to now is       85.4 secs

     total energy              =   -2326.92963395 Ry
     estimated scf accuracy    <       0.02931836 Ry

     iteration #  4     ecut=    80.00 Ry     beta= 0.30
     Davidson diagonalization with overlap
     c_bands:  1 eigenvalues not converged
     ethr =  3.19E-05,  avg # of iterations =  9.0

     negative rho (up, down):  1.497E-05 0.000E+00

     total cpu time spent up to now is      107.3 secs

     total energy              =   -2326.93025240 Ry
     estimated scf accuracy    <       0.00820339 Ry

     iteration #  5     ecut=    80.00 Ry     beta= 0.30
     Davidson diagonalization with overlap
     c_bands:  1 eigenvalues not converged
     ethr =  8.92E-06,  avg # of iterations =  5.2

     negative rho (up, down):  1.622E-06 0.000E+00

     total cpu time spent up to now is      127.9 secs

     total energy              =   -2326.92992498 Ry
     estimated scf accuracy    <       0.00342429 Ry

     iteration #  6     ecut=    80.00 Ry     beta= 0.30
     Davidson diagonalization with overlap
     c_bands:  1 eigenvalues not converged
     ethr =  3.72E-06,  avg # of iterations =  6.6

     negative rho (up, down):  6.983E-07 0.000E+00

     total cpu time spent up to now is      149.3 secs

     total energy              =   -2326.92988934 Ry
     estimated scf accuracy    <       0.00190612 Ry

     iteration #  7     ecut=    80.00 Ry     beta= 0.30
     Davidson diagonalization with overlap
     ethr =  2.07E-06,  avg # of iterations =  4.1

     negative rho (up, down):  1.238E-04 0.000E+00

     total cpu time spent up to now is      167.7 secs

     total energy              =   -2326.92968076 Ry
     estimated scf accuracy    <       0.00182333 Ry

     iteration #  8     ecut=    80.00 Ry     beta= 0.30
     Davidson diagonalization with overlap
     ethr =  1.98E-06,  avg # of iterations =  5.9

     negative rho (up, down):  1.529E-03 0.000E+00

     total cpu time spent up to now is      188.3 secs

     total energy              =   -2326.92957772 Ry
     estimated scf accuracy    <       0.00109878 Ry

     iteration #  9     ecut=    80.00 Ry     beta= 0.30
     Davidson diagonalization with overlap
     ethr =  1.19E-06,  avg # of iterations =  3.9

     negative rho (up, down):  3.800E-03 0.000E+00

     total cpu time spent up to now is      206.7 secs

     total energy              =   -2326.92954025 Ry
     estimated scf accuracy    <       0.00067724 Ry

     iteration # 10     ecut=    80.00 Ry     beta= 0.30
     Davidson diagonalization with overlap
     ethr =  7.36E-07,  avg # of iterations =  6.9

     negative rho (up, down):  4.803E-03 0.000E+00

     total cpu time spent up to now is      226.6 secs

     total energy              =   -2326.92955120 Ry
     estimated scf accuracy    <       0.00038590 Ry

     iteration # 11     ecut=    80.00 Ry     beta= 0.30
     Davidson diagonalization with overlap
     ethr =  4.19E-07,  avg # of iterations =  4.5

     negative rho (up, down):  3.662E-03 0.000E+00

     total cpu time spent up to now is      244.7 secs

     total energy              =   -2326.92952411 Ry
     estimated scf accuracy    <       0.00029298 Ry

     iteration # 12     ecut=    80.00 Ry     beta= 0.30
     Davidson diagonalization with overlap
     ethr =  3.18E-07,  avg # of iterations =  2.5

     negative rho (up, down):  5.489E-03 0.000E+00

     total cpu time spent up to now is      261.7 secs

     total energy              =   -2326.92943294 Ry
     estimated scf accuracy    <       0.00023338 Ry

     iteration # 13     ecut=    80.00 Ry     beta= 0.30
     Davidson diagonalization with overlap
     ethr =  2.54E-07,  avg # of iterations =  5.9

     negative rho (up, down):  5.981E-03 0.000E+00

     total cpu time spent up to now is      281.2 secs

     total energy              =   -2326.92942703 Ry
     estimated scf accuracy    <       0.00011993 Ry

     iteration # 14     ecut=    80.00 Ry     beta= 0.30
     Davidson diagonalization with overlap
     ethr =  1.30E-07,  avg # of iterations =  1.5

     negative rho (up, down):  4.942E-03 0.000E+00

     total cpu time spent up to now is      297.8 secs

     total energy              =   -2326.92948124 Ry
     estimated scf accuracy    <       0.00008521 Ry

     iteration # 15     ecut=    80.00 Ry     beta= 0.30
     Davidson diagonalization with overlap
     ethr =  9.26E-08,  avg # of iterations =  4.1

     negative rho (up, down):  3.627E-03 0.000E+00

     total cpu time spent up to now is      315.3 secs

     total energy              =   -2326.92945682 Ry
     estimated scf accuracy    <       0.00005855 Ry

     iteration # 16     ecut=    80.00 Ry     beta= 0.30
     Davidson diagonalization with overlap
     ethr =  6.36E-08,  avg # of iterations =  3.4

     negative rho (up, down):  2.664E-03 0.000E+00

     total cpu time spent up to now is      332.6 secs

     total energy              =   -2326.92946919 Ry
     estimated scf accuracy    <       0.00002663 Ry

     iteration # 17     ecut=    80.00 Ry     beta= 0.30
     Davidson diagonalization with overlap
     ethr =  2.89E-08,  avg # of iterations =  4.2

     negative rho (up, down):  1.225E-03 0.000E+00

     total cpu time spent up to now is      351.9 secs

     total energy              =   -2326.92949819 Ry
     estimated scf accuracy    <       0.00000998 Ry

     iteration # 18     ecut=    80.00 Ry     beta= 0.30
     Davidson diagonalization with overlap
     ethr =  1.08E-08,  avg # of iterations =  5.9

     negative rho (up, down):  6.268E-04 0.000E+00

     total cpu time spent up to now is      371.6 secs

     total energy              =   -2326.92950271 Ry
     estimated scf accuracy    <       0.00000264 Ry

     iteration # 19     ecut=    80.00 Ry     beta= 0.30
     Davidson diagonalization with overlap
     ethr =  2.87E-09,  avg # of iterations =  3.8

     negative rho (up, down):  3.165E-04 0.000E+00

     total cpu time spent up to now is      390.5 secs

     total energy              =   -2326.92950549 Ry
     estimated scf accuracy    <       0.00000069 Ry

     iteration # 20     ecut=    80.00 Ry     beta= 0.30
     Davidson diagonalization with overlap
     ethr =  7.45E-10,  avg # of iterations =  3.1

     negative rho (up, down):  2.578E-04 0.000E+00

     total cpu time spent up to now is      409.3 secs

     total energy              =   -2326.92950619 Ry
     estimated scf accuracy    <       0.00000016 Ry

     iteration # 21     ecut=    80.00 Ry     beta= 0.30
     Davidson diagonalization with overlap
     ethr =  1.74E-10,  avg # of iterations =  2.1

     negative rho (up, down):  2.338E-04 0.000E+00

     total cpu time spent up to now is      427.5 secs

     total energy              =   -2326.92950635 Ry
     estimated scf accuracy    <       0.00000007 Ry

     iteration # 22     ecut=    80.00 Ry     beta= 0.30
     Davidson diagonalization with overlap
     ethr =  7.34E-11,  avg # of iterations =  2.2

     negative rho (up, down):  2.263E-04 0.000E+00

     total cpu time spent up to now is      449.2 secs

     total energy              =   -2326.92950625 Ry
     estimated scf accuracy    <       0.00000001 Ry

     iteration # 23     ecut=    80.00 Ry     beta= 0.30
     Davidson diagonalization with overlap
     ethr =  1.27E-11,  avg # of iterations =  1.5

     negative rho (up, down):  2.224E-04 0.000E+00

     total cpu time spent up to now is      465.7 secs

     End of self-consistent calculation

          k = 0.0000 0.0000 0.0000 ( 37787 PWs)   bands (ev):

   -61.9011 -61.8997 -48.2995 -48.2995 -48.2973 -48.2973 -48.2971 -48.2971
   -48.2949 -48.2949 -48.2547 -48.2547 -48.2526 -48.2526 -48.2515 -48.2515
   -48.2494 -48.2494 -48.2362 -48.2343 -48.2327 -48.2307 -36.0195 -36.0183
   -35.9042 -35.9042 -35.9022 -35.9021 -15.3022 -15.2908 -14.4869 -14.4708
    -6.4930  -6.3952  -3.5067  -3.3655  -3.3655  -3.3586  -3.3586  -3.1888
    -1.6829  -1.4828  -1.0692  -1.0692  -1.0658  -1.0657   0.2252   0.2252
     0.2303   0.2303   2.9426   2.9426   2.9492   2.9492   3.3991

          k = 0.0000 0.0722 0.0000 ( 37755 PWs)   bands (ev):

   -61.9001 -61.8987 -48.2995 -48.2993 -48.2973 -48.2971 -48.2971 -48.2969
   -48.2949 -48.2947 -48.2547 -48.2547 -48.2527 -48.2527 -48.2515 -48.2515
   -48.2494 -48.2494 -48.2361 -48.2342 -48.2326 -48.2306 -36.0173 -36.0160
   -35.9148 -35.9128 -35.9066 -35.9046 -15.2454 -15.2340 -14.4573 -14.4414
    -6.4153  -6.3175  -3.9074  -3.7811  -3.3335  -3.3266  -3.0271  -2.8438
    -1.7061  -1.5450  -1.2647  -1.2427  -1.2161  -1.2123   0.1065   0.1365
     0.3379   0.3430   2.6207   2.6377   2.8931   2.9013   3.5134

          k = 0.0000 0.1443 0.0000 ( 37697 PWs)   bands (ev):

   -61.8974 -61.8960 -48.2995 -48.2988 -48.2973 -48.2971 -48.2966 -48.2964
   -48.2949 -48.2941 -48.2549 -48.2548 -48.2529 -48.2527 -48.2517 -48.2516
   -48.2496 -48.2494 -48.2359 -48.2339 -48.2324 -48.2303 -36.0109 -36.0096
   -35.9449 -35.9429 -35.9136 -35.9115 -15.0789 -15.0677 -14.3706 -14.3556
    -6.1902  -6.0924  -4.3749  -4.2755  -3.2581  -3.2513  -2.8006  -2.6429
    -2.1013  -2.0568  -1.5175  -1.5035  -1.4992  -1.3891  -0.0356   0.0442
     0.5276   0.5334   1.9995   2.0774   2.7917   2.8026   3.7829

          k = 0.0000 0.2165 0.0000 ( 37653 PWs)   bands (ev):

   -61.8933 -61.8919 -48.2995 -48.2980 -48.2973 -48.2970 -48.2958 -48.2956
   -48.2948 -48.2933 -48.2552 -48.2548 -48.2531 -48.2528 -48.2519 -48.2516
   -48.2498 -48.2495 -48.2355 -48.2335 -48.2320 -48.2299 -36.0017 -36.0004
   -35.9894 -35.9873 -35.9239 -35.9219 -14.8158 -14.8050 -14.2335 -14.2197
    -5.8489  -5.7532  -4.7914  -4.7131  -3.2681  -3.2540  -3.2064  -3.1997
    -2.5131  -2.3700  -1.7272  -1.7224  -1.6064  -1.5093  -0.0840   0.0264
     0.6330   0.6399   1.5941   1.7681   2.7247   2.7382   4.1547

          k = 0.0000 0.2887 0.0000 ( 37721 PWs)   bands (ev):

   -61.8884 -61.8870 -48.2995 -48.2973 -48.2971 -48.2970 -48.2949 -48.2948
   -48.2947 -48.2925 -48.2555 -48.2550 -48.2534 -48.2529 -48.2522 -48.2518
   -48.2501 -48.2496 -48.2350 -48.2331 -48.2315 -48.2295 -36.0424 -36.0403
   -35.9898 -35.9885 -35.9361 -35.9341 -14.4823 -14.4720 -14.0546 -14.0424
    -5.5297  -5.4506  -5.0260  -4.9551  -4.2858  -4.2789  -3.2608  -3.2542
    -2.6804  -2.5723  -1.8408  -1.7852  -1.7709  -1.7653  -0.0161   0.1130
     0.6374   0.6447   1.6575   1.9223   2.7244   2.7407   4.6168

          k = 0.0000 0.3608 0.0000 ( 37749 PWs)   bands (ev):

   -61.8836 -61.8821 -48.2994 -48.2972 -48.2970 -48.2962 -48.2948 -48.2940
   -48.2938 -48.2916 -48.2558 -48.2551 -48.2538 -48.2530 -48.2525 -48.2518
   -48.2503 -48.2497 -48.2346 -48.2326 -48.2311 -48.2290 -36.0944 -36.0923
   -35.9784 -35.9772 -35.9483 -35.9462 -14.1334 -14.1242 -13.8341 -13.8237
    -5.6229  -5.5850  -5.2473  -5.2335  -4.7653  -4.6910  -3.4093  -3.4029
    -3.0202  -2.9502  -2.1019  -2.0564  -1.6659  -1.6593   0.2447   0.3662
     0.6146   0.6208   2.0496   2.3610   2.7594   2.7787   5.1157

          k = 0.0000 0.4330 0.0000 ( 37785 PWs)   bands (ev):

   -61.8794 -61.8780 -48.2994 -48.2972 -48.2970 -48.2954 -48.2947 -48.2932
   -48.2930 -48.2908 -48.2561 -48.2552 -48.2541 -48.2531 -48.2527 -48.2519
   -48.2505 -48.2498 -48.2342 -48.2322 -48.2307 -48.2287 -36.1382 -36.1360
   -35.9688 -35.9676 -35.9586 -35.9565 -13.8685 -13.8609 -13.5542 -13.5456
    -6.2062  -6.1982  -5.6016  -5.5615  -4.5578  -4.5191  -3.5685  -3.5621
    -3.2756  -3.2036  -2.2702  -2.2352  -1.5329  -1.5246   0.6233   0.6300
     0.6342   0.7162   2.5614   2.7946   2.8165   2.8596   5.0553

          k = 0.0000 0.5052 0.0000 ( 37822 PWs)   bands (ev):

   -61.8767 -61.8753 -48.2995 -48.2973 -48.2969 -48.2949 -48.2947 -48.2927
   -48.2925 -48.2903 -48.2563 -48.2552 -48.2543 -48.2532 -48.2528 -48.2520
   -48.2507 -48.2499 -48.2340 -48.2320 -48.2304 -48.2284 -36.1672 -36.1650
   -35.9654 -35.9634 -35.9624 -35.9612 -13.7224 -13.7163 -13.2912 -13.2848
    -6.7638  -6.7560  -5.6169  -5.5885  -4.7174  -4.6923  -3.6806  -3.6742
    -3.1551  -3.0848  -2.3923  -2.3694  -1.4464  -1.4366   0.6797   0.6829
     0.9836   1.0392   2.8162   2.8400   3.0378   3.2473   4.5641

          k = 0.0000-0.5774 0.0000 ( 37832 PWs)   bands (ev):

   -61.8757 -61.8743 -48.2995 -48.2973 -48.2969 -48.2948 -48.2947 -48.2926
   -48.2923 -48.2901 -48.2564 -48.2553 -48.2543 -48.2532 -48.2528 -48.2520
   -48.2507 -48.2499 -48.2339 -48.2319 -48.2303 -48.2283 -36.1774 -36.1752
   -35.9678 -35.9658 -35.9601 -35.9589 -13.6745 -13.6691 -13.1840 -13.1788
    -6.9690  -6.9614  -5.5799  -5.5665  -4.8606  -4.8342  -3.7202  -3.7139
    -3.0196  -2.9630  -2.4589  -2.4397  -1.4190  -1.4086   0.7072   0.7105
     1.1446   1.1724   2.8231   2.8476   3.2946   3.4152   4.2323

          k = 0.0625 0.1083 0.0000 ( 37709 PWs)   bands (ev):

   -61.8983 -61.8969 -48.2995 -48.2990 -48.2973 -48.2971 -48.2968 -48.2966
   -48.2948 -48.2943 -48.2548 -48.2547 -48.2528 -48.2527 -48.2517 -48.2516
   -48.2495 -48.2494 -48.2360 -48.2340 -48.2324 -48.2304 -36.0130 -36.0117
   -35.9349 -35.9328 -35.9116 -35.9096 -15.1337 -15.1224 -14.3992 -14.3838
    -6.2635  -6.1656  -4.2504  -4.1439  -3.2869  -3.2801  -2.8297  -2.6516
    -1.9030  -1.8560  -1.5130  -1.4953  -1.4261  -1.3220   0.0313   0.0978
     0.4280   0.4327   2.2382   2.2926   2.7519   2.7559   3.7018

          k = 0.0625 0.1804 0.0000 ( 37703 PWs)   bands (ev):

   -61.8948 -61.8934 -48.2994 -48.2983 -48.2972 -48.2970 -48.2961 -48.2959
   -48.2948 -48.2937 -48.2551 -48.2548 -48.2530 -48.2528 -48.2518 -48.2516
   -48.2497 -48.2495 -48.2356 -48.2337 -48.2321 -48.2301 -36.0050 -36.0038
   -35.9715 -35.9694 -35.9211 -35.9190 -14.9185 -14.9075 -14.2874 -14.2731
    -5.9755  -5.8783  -4.6510  -4.5657  -3.2812  -3.2746  -2.8582  -2.7801
    -2.4853  -2.4249  -1.7800  -1.7364  -1.4676  -1.3530   0.0173   0.1076
     0.4258   0.4376   1.8899   2.0067   2.5762   2.5840   4.0157

          k = 0.0625 0.2526 0.0000 ( 37702 PWs)   bands (ev):

   -61.8904 -61.8889 -48.2994 -48.2975 -48.2972 -48.2970 -48.2953 -48.2951
   -48.2948 -48.2929 -48.2553 -48.2549 -48.2533 -48.2529 -48.2521 -48.2517
   -48.2500 -48.2496 -48.2352 -48.2332 -48.2317 -48.2297 -36.0192 -36.0171
   -35.9944 -35.9931 -35.9335 -35.9314 -14.6181 -14.6076 -14.1305 -14.1176
    -5.6062  -5.5143  -4.9851  -4.9156  -3.8405  -3.8352  -3.2320  -3.2176
    -2.6448  -2.5648  -1.9862  -1.9474  -1.4835  -1.4092  -0.0537   0.0427
     0.4891   0.5352   1.7540   1.9273   2.5428   2.5661   4.4319

          k = 0.0625 0.3248 0.0000 ( 37734 PWs)   bands (ev):

   -61.8855 -61.8841 -48.2994 -48.2972 -48.2969 -48.2966 -48.2947 -48.2944
   -48.2942 -48.2920 -48.2557 -48.2550 -48.2536 -48.2530 -48.2523 -48.2518
   -48.2502 -48.2497 -48.2348 -48.2328 -48.2313 -48.2292 -36.0701 -36.0680
   -35.9831 -35.9819 -35.9469 -35.9448 -14.2693 -14.2596 -13.9359 -13.9247
    -5.4807  -5.4226  -4.9588  -4.9003  -4.7920  -4.7685  -3.4708  -3.4572
    -2.7592  -2.6993  -2.2890  -2.2739  -1.4588  -1.4160  -0.0081   0.0938
     0.6388   0.6788   1.8693   2.0708   2.6193   2.6879   4.9284

          k = 0.0625 0.3969 0.0000 ( 37770 PWs)   bands (ev):

   -61.8810 -61.8796 -48.2993 -48.2971 -48.2969 -48.2958 -48.2946 -48.2936
   -48.2934 -48.2912 -48.2560 -48.2552 -48.2539 -48.2531 -48.2526 -48.2519
   -48.2505 -48.2498 -48.2344 -48.2324 -48.2308 -48.2288 -36.1169 -36.1147
   -35.9727 -35.9715 -35.9591 -35.9571 -13.9523 -13.9440 -13.6906 -13.6813
    -5.8226  -5.8141  -5.5042  -5.4663  -4.5932  -4.5327  -3.7183  -3.7002
    -3.0132  -2.9722  -2.5088  -2.4909  -1.3804  -1.3576   0.2014   0.2768
     0.7962   0.8328   2.1723   2.3161   2.7551   2.9062   5.3567

          k = 0.0625 0.4691 0.0000 ( 37798 PWs)   bands (ev):

   -61.8776 -61.8762 -48.2993 -48.2971 -48.2968 -48.2952 -48.2946 -48.2930
   -48.2928 -48.2906 -48.2562 -48.2552 -48.2542 -48.2532 -48.2527 -48.2520
   -48.2506 -48.2499 -48.2340 -48.2321 -48.2305 -48.2285 -36.1524 -36.1502
   -35.9690 -35.9669 -35.9643 -35.9630 -13.7538 -13.7471 -13.4040 -13.3966
    -6.4770  -6.4691  -5.6086  -5.5748  -4.5697  -4.5437  -3.8127  -3.7938
    -3.1331  -3.0829  -2.6128  -2.5980  -1.3335  -1.3239   0.4626   0.5015
     0.9770   1.0139   2.4465   2.4941   2.9736   3.1707   5.0170

          k = 0.0625 0.5413 0.0000 ( 37791 PWs)   bands (ev):

   -61.8757 -61.8743 -48.2993 -48.2971 -48.2968 -48.2949 -48.2946 -48.2927
   -48.2925 -48.2902 -48.2563 -48.2553 -48.2543 -48.2533 -48.2528 -48.2520
   -48.2507 -48.2499 -48.2339 -48.2319 -48.2303 -48.2283 -36.1715 -36.1694
   -35.9739 -35.9718 -35.9601 -35.9589 -13.6599 -13.6544 -13.2078 -13.2023
    -6.8638  -6.8562  -5.5834  -5.5649  -4.7790  -4.7532  -3.8243  -3.8163
    -3.0199  -2.9711  -2.6823  -2.6733  -1.3319  -1.3276   0.6580   0.6695
     1.1099   1.1381   2.5614   2.5815   3.2320   3.3677   4.5194

          k = 0.1250 0.2165 0.0000 ( 37731 PWs)   bands (ev):

   -61.8910 -61.8896 -48.2994 -48.2977 -48.2972 -48.2969 -48.2955 -48.2953
   -48.2947 -48.2931 -48.2553 -48.2549 -48.2533 -48.2529 -48.2520 -48.2517
   -48.2499 -48.2496 -48.2353 -48.2333 -48.2318 -48.2297 -36.0094 -36.0073
   -35.9962 -35.9950 -35.9340 -35.9320 -14.6647 -14.6541 -14.1565 -14.1434
    -5.6388  -5.5432  -4.9532  -4.8831  -3.6986  -3.6929  -3.0472  -2.9814
    -2.8682  -2.8630  -1.9724  -1.9009  -1.3762  -1.2724   0.0269   0.0667
     0.2658   0.3689   2.0921   2.1755   2.1865   2.2671   4.3717

          k = 0.1250 0.2887 0.0000 ( 37723 PWs)   bands (ev):

   -61.8866 -61.8851 -48.2992 -48.2970 -48.2970 -48.2968 -48.2948 -48.2946
   -48.2946 -48.2923 -48.2556 -48.2550 -48.2535 -48.2530 -48.2523 -48.2518
   -48.2501 -48.2497 -48.2349 -48.2329 -48.2314 -48.2293 -36.0529 -36.0508
   -35.9859 -35.9846 -35.9500 -35.9479 -14.3420 -14.3319 -13.9883 -13.9767
    -5.3166  -5.2452  -5.1158  -5.0403  -4.4666  -4.4614  -3.4796  -3.4500
    -2.9611  -2.9503  -2.2227  -2.1835  -1.2421  -1.1607  -0.2043  -0.1244
     0.5612   0.6493   1.8527   1.8851   2.3972   2.5853   4.8289

          k = 0.1250 0.3608 0.0000 ( 37761 PWs)   bands (ev):

   -61.8821 -61.8807 -48.2991 -48.2969 -48.2966 -48.2962 -48.2944 -48.2940
   -48.2938 -48.2916 -48.2559 -48.2552 -48.2538 -48.2531 -48.2525 -48.2520
   -48.2504 -48.2498 -48.2345 -48.2325 -48.2309 -48.2289 -36.0958 -36.0937
   -35.9760 -35.9747 -35.9657 -35.9637 -14.0012 -13.9923 -13.7863 -13.7765
    -5.4947  -5.4595  -5.2700  -5.2590  -4.7088  -4.6308  -3.8625  -3.8416
    -3.0607  -3.0499  -2.6416  -2.6236  -1.0985  -1.0431  -0.1732  -0.0864
     0.8572   0.9126   1.7601   1.8128   2.6874   2.9047   5.3471

          k = 0.1250 0.4330 0.0000 ( 37768 PWs)   bands (ev):

   -61.8783 -61.8768 -48.2990 -48.2968 -48.2965 -48.2956 -48.2943 -48.2934
   -48.2932 -48.2910 -48.2561 -48.2553 -48.2541 -48.2532 -48.2527 -48.2520
   -48.2506 -48.2499 -48.2341 -48.2321 -48.2306 -48.2286 -36.1318 -36.1297
   -35.9811 -35.9790 -35.9658 -35.9646 -13.7502 -13.7429 -13.5221 -13.5141
    -6.0680  -6.0609  -5.5427  -5.5074  -4.4189  -4.3805  -4.0952  -4.0627
    -3.1714  -3.1629  -2.9913  -2.9710  -1.0539  -1.0219   0.0781   0.1479
     1.0609   1.0885   1.8674   1.9223   2.9641   3.1657   5.5401

          k = 0.1250 0.5052 0.0000 ( 37794 PWs)   bands (ev):

   -61.8757 -61.8743 -48.2989 -48.2967 -48.2964 -48.2952 -48.2942 -48.2930
   -48.2928 -48.2906 -48.2562 -48.2554 -48.2542 -48.2533 -48.2528 -48.2521
   -48.2507 -48.2500 -48.2339 -48.2319 -48.2304 -48.2283 -36.1557 -36.1535
   -35.9902 -35.9881 -35.9601 -35.9589 -13.6174 -13.6116 -13.2722 -13.2661
    -6.5716  -6.5641  -5.5695  -5.5467  -4.5827  -4.5594  -4.0429  -4.0200
    -3.2518  -3.2453  -3.0607  -3.0302  -1.1049  -1.0847   0.4302   0.4726
     1.1162   1.1316   2.0424   2.0799   3.1738   3.3075   5.1170

          k = 0.1250 0.5774 0.0000 ( 37780 PWs)   bands (ev):

   -61.8748 -61.8734 -48.2989 -48.2967 -48.2964 -48.2951 -48.2942 -48.2929
   -48.2926 -48.2904 -48.2563 -48.2554 -48.2543 -48.2533 -48.2528 -48.2521
   -48.2507 -48.2500 -48.2338 -48.2318 -48.2303 -48.2282 -36.1641 -36.1619
   -35.9934 -35.9913 -35.9581 -35.9569 -13.5734 -13.5682 -13.1722 -13.1674
    -6.7552  -6.7476  -5.5555  -5.5446  -4.6983  -4.6728  -4.0346  -4.0207
    -3.2804  -3.2750  -3.0138  -2.9869  -1.1429  -1.1247   0.6495   0.6582
     1.0649   1.0847   2.1423   2.1462   3.2530   3.3500   4.8694

          k = 0.1875 0.3248 0.0000 ( 37725 PWs)   bands (ev):

   -61.8824 -61.8810 -48.2989 -48.2967 -48.2965 -48.2964 -48.2943 -48.2942
   -48.2940 -48.2918 -48.2558 -48.2551 -48.2538 -48.2531 -48.2524 -48.2520
   -48.2503 -48.2498 -48.2345 -48.2325 -48.2310 -48.2289 -36.0863 -36.0841
   -35.9781 -35.9767 -35.9693 -35.9674 -14.0167 -14.0076 -13.8210 -13.8110
    -5.3684  -5.3226  -5.0982  -5.0935  -4.7980  -4.7179  -3.8687  -3.8420
    -3.3385  -3.3328  -2.5189  -2.5078  -0.9421  -0.8670  -0.3505  -0.2649
     0.8476   0.9194   1.5931   1.6069   2.6687   2.9020   5.3191

          k = 0.1875 0.3969 0.0000 ( 37753 PWs)   bands (ev):

   -61.8786 -61.8772 -48.2987 -48.2965 -48.2962 -48.2960 -48.2940 -48.2937
   -48.2936 -48.2913 -48.2560 -48.2553 -48.2540 -48.2533 -48.2526 -48.2521
   -48.2505 -48.2500 -48.2341 -48.2322 -48.2306 -48.2286 -36.1150 -36.1129
   -35.9934 -35.9913 -35.9666 -35.9654 -13.7129 -13.7054 -13.6225 -13.6142
    -5.6982  -5.6931  -5.4646  -5.4306  -4.3939  -4.3273  -4.2166  -4.1933
    -3.6649  -3.6583  -2.9138  -2.9101  -0.7235  -0.6726  -0.2779  -0.2028
     1.0826   1.1237   1.4981   1.5398   2.9672   3.1710   5.8045

          k = 0.1875 0.4691 0.0000 ( 37759 PWs)   bands (ev):

   -61.8757 -61.8743 -48.2985 -48.2963 -48.2960 -48.2956 -48.2938 -48.2934
   -48.2932 -48.2910 -48.2562 -48.2554 -48.2541 -48.2534 -48.2528 -48.2521
   -48.2506 -48.2500 -48.2339 -48.2319 -48.2304 -48.2283 -36.1359 -36.1338
   -36.0104 -36.0084 -35.9601 -35.9589 -13.5515 -13.5454 -13.3594 -13.3529
    -6.1832  -6.1767  -5.5257  -5.5033  -4.4410  -4.4198  -4.1412  -4.1012
    -3.8922  -3.8820  -3.1845  -3.1794  -0.7636  -0.7320   0.0748   0.1253
     1.1363   1.1515   1.6360   1.6997   3.1644   3.2834   5.6306

          k = 0.1875 0.5413 0.0000 ( 37793 PWs)   bands (ev):

   -61.8741 -61.8727 -48.2983 -48.2961 -48.2959 -48.2954 -48.2937 -48.2932
   -48.2931 -48.2908 -48.2562 -48.2555 -48.2542 -48.2535 -48.2529 -48.2522
   -48.2507 -48.2501 -48.2337 -48.2318 -48.2302 -48.2282 -36.1469 -36.1447
   -36.0201 -36.0180 -35.9565 -35.9554 -13.4732 -13.4682 -13.1890 -13.1842
    -6.4610  -6.4536  -5.5484  -5.5373  -4.5351  -4.5123  -4.1740  -4.1538
    -3.9670  -3.9569  -3.2087  -3.1979  -0.8481  -0.8227   0.4566   0.4777
     0.9912   1.0021   1.8555   1.8986   3.1830   3.2493   5.4268

          k = 0.2500 0.4330 0.0000 ( 37711 PWs)   bands (ev):

   -61.8757 -61.8743 -48.2982 -48.2960 -48.2959 -48.2956 -48.2937 -48.2934
   -48.2934 -48.2912 -48.2561 -48.2554 -48.2541 -48.2534 -48.2528 -48.2522
   -48.2506 -48.2501 -48.2339 -48.2319 -48.2304 -48.2283 -36.1255 -36.1233
   -36.0211 -36.0190 -35.9601 -35.9589 -13.4898 -13.4838 -13.4297 -13.4229
    -5.9622  -5.9566  -5.4930  -5.4727  -4.4256  -4.3996  -4.2526  -4.2486
    -4.0701  -4.0218  -3.2841  -3.2713  -0.3794  -0.3279  -0.3145  -0.2834
     1.1255   1.1511   1.5082   1.5795   3.1684   3.2790   5.9336

          k = 0.2500 0.5052 0.0000 ( 37776 PWs)   bands (ev):

   -61.8738 -61.8724 -48.2978 -48.2960 -48.2956 -48.2953 -48.2938 -48.2935
   -48.2930 -48.2913 -48.2562 -48.2556 -48.2541 -48.2535 -48.2529 -48.2522
   -48.2507 -48.2501 -48.2337 -48.2317 -48.2302 -48.2282 -36.1280 -36.1259
   -36.0441 -36.0420 -35.9557 -35.9545 -13.3793 -13.3744 -13.2418 -13.2369
    -6.1107  -6.1037  -5.5391  -5.5293  -4.6733  -4.6678  -4.4015  -4.3765
    -3.9847  -3.9608  -3.5198  -3.5110  -0.4555  -0.4243   0.0481   0.0670
     0.9565   0.9634   1.7869   1.8785   3.1376   3.1588   5.6832

          k = 0.2500 0.5774 0.0000 ( 37791 PWs)   bands (ev):

   -61.8731 -61.8717 -48.2976 -48.2960 -48.2954 -48.2951 -48.2938 -48.2935
   -48.2929 -48.2913 -48.2562 -48.2556 -48.2541 -48.2536 -48.2529 -48.2522
   -48.2508 -48.2501 -48.2337 -48.2317 -48.2301 -48.2281 -36.1275 -36.1253
   -36.0537 -36.0515 -35.9542 -35.9530 -13.3404 -13.3359 -13.1715 -13.1675
    -6.1538  -6.1464  -5.5676  -5.5608  -4.8261  -4.8209  -4.2258  -4.2064
    -4.1889  -4.1755  -3.5191  -3.5135  -0.5038  -0.4770   0.3080   0.3235
     0.7491   0.7574   2.0221   2.0772   3.0052   3.0181   5.5927

          k = 0.3125 0.5413 0.0000 ( 37789 PWs)   bands (ev):

   -61.8727 -61.8713 -48.2972 -48.2963 -48.2950 -48.2947 -48.2941 -48.2939
   -48.2924 -48.2917 -48.2561 -48.2557 -48.2541 -48.2536 -48.2529 -48.2523
   -48.2508 -48.2501 -48.2336 -48.2316 -48.2301 -48.2281 -36.1100 -36.1078
   -36.0762 -36.0740 -35.9533 -35.9521 -13.2610 -13.2567 -13.1986 -13.1949
    -5.8501  -5.8416  -5.5762  -5.5714  -5.2666  -5.2594  -4.2356  -4.2104
    -3.8981  -3.8858  -3.8809  -3.8646  -0.1700  -0.1373   0.0151   0.0368
     0.6526   0.6554   2.2117   2.3038   2.7964   2.8527   5.5581

     the Fermi energy is    -0.3050 ev

!    total energy              =   -2326.92950601 Ry
     total all-electron energy =    -35628.677335 Ry
     estimated scf accuracy    <          6.3E-09 Ry
     smearing contrib. (-TS)   =       0.00086617 Ry
     internal energy E=F+TS    =   -2326.93037219 Ry

     The total energy is F=E-TS. E is the sum of the following terms:
     one-electron contribution =  -26514.58402803 Ry
     hartree contribution      =   13245.50296270 Ry
     xc contribution           =    -152.42774496 Ry
     ewald contribution        =   12105.09272824 Ry
     one-center paw contrib.   =   -1010.51429013 Ry

     convergence has been achieved in  23 iterations

     Writing all to output data dir ./tmp/cleave_007/mose2_cleave_007.save/ :
     XML data file, charge density, pseudopotentials, collected wavefunctions

     init_run     :     11.70s CPU     11.89s WALL (       1 calls)
     electrons    :    445.66s CPU    453.63s WALL (       1 calls)

     Called by init_run:
     wfcinit      :      5.34s CPU      5.36s WALL (       1 calls)
     potinit      :      5.71s CPU      5.75s WALL (       1 calls)
     hinit0       :      0.05s CPU      0.06s WALL (       1 calls)

     Called by electrons:
     c_bands      :    371.35s CPU    373.63s WALL (      24 calls)
     sum_band     :     49.45s CPU     52.00s WALL (      24 calls)
     v_of_rho     :     14.70s CPU     15.55s WALL (      24 calls)
     newd         :      8.74s CPU     11.09s WALL (      24 calls)
     PAW_pot      :      1.48s CPU      1.52s WALL (      24 calls)
     mix_rho      :      5.79s CPU      5.82s WALL (      24 calls)
     vdW_kernel   :      5.26s CPU      5.27s WALL (       1 calls)

     Called by c_bands:
     init_us_2    :      3.45s CPU      3.46s WALL (    1470 calls)
     cegterg      :    363.98s CPU    366.18s WALL (     720 calls)

     Called by *egterg:
     cdiaghg      :     12.40s CPU     12.41s WALL (    3649 calls)
     h_psi        :    163.06s CPU    163.89s WALL (    3709 calls)
     s_psi        :     36.25s CPU     36.29s WALL (    3709 calls)
     g_psi        :      0.65s CPU      0.65s WALL (    2959 calls)

     Called by h_psi:
     h_psi:calbec :     46.81s CPU     47.16s WALL (    3709 calls)
     vloc_psi     :     69.82s CPU     70.27s WALL (    3709 calls)
                                        0.00s GPU  (    3709 calls)
     add_vuspsi   :     45.77s CPU     45.81s WALL (    3709 calls)

     General routines
     calbec       :     67.34s CPU     67.84s WALL (    4429 calls)
     fft          :      5.31s CPU      5.39s WALL (    1511 calls)
     ffts         :      2.04s CPU      2.05s WALL (    2754 calls)
     fftw         :     75.75s CPU     76.24s WALL (  214886 calls)
     interpolate  :      0.11s CPU      0.11s WALL (      24 calls)

     Parallel routines

     PWSCF        :   7m37.95s CPU   7m46.27s WALL


   This run was terminated on:   9:49:35  20Jun2026            

=------------------------------------------------------------------------------=
   JOB DONE.
=------------------------------------------------------------------------------=
Note: The following floating-point exceptions are signalling: IEEE_UNDERFLOW_FLAG IEEE_DENORMAL
Note: The following floating-point exceptions are signalling: IEEE_UNDERFLOW_FLAG IEEE_DENORMAL
Note: The following floating-point exceptions are signalling: IEEE_UNDERFLOW_FLAG IEEE_DENORMAL
Note: The following floating-point exceptions are signalling: IEEE_UNDERFLOW_FLAG IEEE_DENORMAL
Note: The following floating-point exceptions are signalling: IEEE_UNDERFLOW_FLAG IEEE_DENORMAL
Note: The following floating-point exceptions are signalling: IEEE_UNDERFLOW_FLAG IEEE_DENORMAL
Note: The following floating-point exceptions are signalling: IEEE_UNDERFLOW_FLAG IEEE_DENORMAL
Note: The following floating-point exceptions are signalling: IEEE_UNDERFLOW_FLAG IEEE_DENORMAL
Note: The following floating-point exceptions are signalling: IEEE_UNDERFLOW_FLAG IEEE_DENORMAL
Note: The following floating-point exceptions are signalling: IEEE_UNDERFLOW_FLAG IEEE_DENORMAL
Note: The following floating-point exceptions are signalling: IEEE_UNDERFLOW_FLAG IEEE_DENORMAL
Note: The following floating-point exceptions are signalling: IEEE_UNDERFLOW_FLAG IEEE_DENORMAL
Note: The following floating-point exceptions are signalling: IEEE_UNDERFLOW_FLAG IEEE_DENORMAL
Note: The following floating-point exceptions are signalling: IEEE_UNDERFLOW_FLAG IEEE_DENORMAL
Note: The following floating-point exceptions are signalling: IEEE_UNDERFLOW_FLAG IEEE_DENORMAL
Note: The following floating-point exceptions are signalling: IEEE_UNDERFLOW_FLAG IEEE_DENORMAL
Note: The following floating-point exceptions are signalling: IEEE_UNDERFLOW_FLAG IEEE_DENORMAL
Note: The following floating-point exceptions are signalling: IEEE_UNDERFLOW_FLAG IEEE_DENORMAL
Note: The following floating-point exceptions are signalling: IEEE_UNDERFLOW_FLAG IEEE_DENORMAL
Note: The following floating-point exceptions are signalling: IEEE_UNDERFLOW_FLAG IEEE_DENORMAL
Note: The following floating-point exceptions are signalling: IEEE_UNDERFLOW_FLAG IEEE_DENORMAL
Note: The following floating-point exceptions are signalling: IEEE_UNDERFLOW_FLAG IEEE_DENORMAL
Note: The following floating-point exceptions are signalling: IEEE_UNDERFLOW_FLAG IEEE_DENORMAL
Note: The following floating-point exceptions are signalling: IEEE_UNDERFLOW_FLAG IEEE_DENORMAL
