
     Program PWSCF v.7.5 starts on 20Jun2026 at 12:15:56 

     This program is part of the open-source Quantum ESPRESSO suite
     for quantum simulation of materials; please cite
         "P. Giannozzi et al., J. Phys.:Condens. Matter 21 395502 (2009);
         "P. Giannozzi et al., J. Phys.:Condens. Matter 29 465901 (2017);
         "P. Giannozzi et al., J. Chem. Phys. 152 154105 (2020);
          URL http://www.quantum-espresso.org", 
     in publications or presentations arising from this work. More details at
     http://www.quantum-espresso.org/quote

     Parallel version (MPI), running on    24 processors

     MPI processes distributed on     1 nodes
     16652 MiB available memory on the printing compute node when the environment starts

     Waiting for input...
     Reading input from standard input

     Current dimensions of program PWSCF are:
     Max number of different atomic species (ntypx) = 10
     Max number of k-points (npk) =  40000
     Max angular momentum in pseudopotentials (lmaxx) =  4
     file Mo.pbe-spn-kjpaw_psl.1.0.0.UPF: wavefunction(s)  4S 4D renormalized
     file Se.pbe-dn-kjpaw_psl.1.0.0.UPF: wavefunction(s)  4S 4P 3D renormalized

     IMPORTANT: XC functional enforced from input :
     Exchange-correlation= VDW-DF2-B86R
                           (   1   4  26   0   2   0   0)
     Any further DFT definition will be discarded
     Please, verify this is what you really want


     R & G space division:  proc/nbgrp/npool/nimage =      24
     Subspace diagonalization in iterative solution of the eigenvalue problem:
     a serial algorithm will be used


     Parallelization info
     --------------------
     sticks:   dense  smooth     PW     G-vecs:    dense   smooth      PW
     Min          69      35     10                35537    12585    1924
     Max          70      36     11                35620    12648    1981
     Sum        1675     847    241               853823   302525   46513

     Using Slab Decomposition



     bravais-lattice index     =            4
     lattice parameter (alat)  =       6.1794  a.u.
     unit-cell volume          =    3124.5879 (a.u.)^3
     number of atoms/cell      =            6
     number of atomic types    =            2
     number of electrons       =        92.00
     number of Kohn-Sham states=           55
     kinetic-energy cutoff     =      80.0000  Ry
     charge density cutoff     =     640.0000  Ry
     scf convergence threshold =      1.0E-08
     mixing beta               =       0.3000
     number of iterations used =            8  local-TF  mixing
     Exchange-correlation= VDW-DF2-B86R
                           (   1   4  26   0   2   0   0)

     celldm(1)=   6.179404  celldm(2)=   0.000000  celldm(3)=  15.290520
     celldm(4)=   0.000000  celldm(5)=   0.000000  celldm(6)=   0.000000

     crystal axes: (cart. coord. in units of alat)
               a(1) = (   1.000000   0.000000   0.000000 )  
               a(2) = (  -0.500000   0.866025   0.000000 )  
               a(3) = (   0.000000   0.000000  15.290520 )  

     reciprocal axes: (cart. coord. in units 2 pi/alat)
               b(1) = (  1.000000  0.577350 -0.000000 )  
               b(2) = (  0.000000  1.154701  0.000000 )  
               b(3) = (  0.000000 -0.000000  0.065400 )  


     PseudoPot. # 1 for Mo read from file:
     ./pseudo/Mo.pbe-spn-kjpaw_psl.1.0.0.UPF
     MD5 check sum: 4396e0c640fcce5c25f020efccf1ab12
     Pseudo is Projector augmented-wave + core cor, Zval = 14.0
     Generated using &quot;atomic&quot; code by A. Dal Corso  v.6.3
     Shape of augmentation charge: PSQ
     Using radial grid of 1229 points,  6 beta functions with: 
                l(1) =   0
                l(2) =   0
                l(3) =   1
                l(4) =   1
                l(5) =   2
                l(6) =   2
     Q(r) pseudized with 0 coefficients 


     PseudoPot. # 2 for Se read from file:
     ./pseudo/Se.pbe-dn-kjpaw_psl.1.0.0.UPF
     MD5 check sum: ac240dd2bae32a30e0bf3a38df9c8785
     Pseudo is Projector augmented-wave + core cor, Zval = 16.0
     Generated using &quot;atomic&quot; code by A. Dal Corso  v.6.3
     Shape of augmentation charge: PSQ
     Using radial grid of 1211 points,  6 beta functions with: 
                l(1) =   0
                l(2) =   0
                l(3) =   1
                l(4) =   1
                l(5) =   2
                l(6) =   2
     Q(r) pseudized with 0 coefficients 


     atomic species   valence    mass     pseudopotential
     Mo               14.00    95.96000     Mo( 1.00)
     Se               16.00    78.96000     Se( 1.00)

      6 Sym. Ops. (no inversion) found



   Cartesian axes

     site n.     atom                  positions (alat units)
         1        Se     tau(   1) = (  -0.0000005   0.5773506   6.1238532  )
         2        Mo     tau(   2) = (   0.0000000   0.0000000   6.6502752  )
         3        Se     tau(   3) = (   0.5000005   0.2886748   7.1775994  )
         4        Se     tau(   4) = (  -0.0000005   0.5773506   9.7637156  )
         5        Mo     tau(   5) = (   0.5000005   0.2886748  10.2909021  )
         6        Se     tau(   6) = (   0.0000000   0.0000000  10.8180428  )

     number of k points=    30  Methfessel-Paxton smearing, width (Ry)=  0.0200
                       cart. coord. in units 2pi/alat
        k(    1) = (   0.0000000   0.0000000   0.0000000), wk =   0.0078125
        k(    2) = (   0.0000000   0.0721688   0.0000000), wk =   0.0468750
        k(    3) = (   0.0000000   0.1443376   0.0000000), wk =   0.0468750
        k(    4) = (   0.0000000   0.2165064   0.0000000), wk =   0.0468750
        k(    5) = (   0.0000000   0.2886751   0.0000000), wk =   0.0468750
        k(    6) = (   0.0000000   0.3608439   0.0000000), wk =   0.0468750
        k(    7) = (   0.0000000   0.4330127   0.0000000), wk =   0.0468750
        k(    8) = (   0.0000000   0.5051815   0.0000000), wk =   0.0468750
        k(    9) = (   0.0000000  -0.5773503   0.0000000), wk =   0.0234375
        k(   10) = (   0.0625000   0.1082532   0.0000000), wk =   0.0468750
        k(   11) = (   0.0625000   0.1804220   0.0000000), wk =   0.0937500
        k(   12) = (   0.0625000   0.2525907   0.0000000), wk =   0.0937500
        k(   13) = (   0.0625000   0.3247595   0.0000000), wk =   0.0937500
        k(   14) = (   0.0625000   0.3969283   0.0000000), wk =   0.0937500
        k(   15) = (   0.0625000   0.4690971   0.0000000), wk =   0.0937500
        k(   16) = (   0.0625000   0.5412659   0.0000000), wk =   0.0937500
        k(   17) = (   0.1250000   0.2165064   0.0000000), wk =   0.0468750
        k(   18) = (   0.1250000   0.2886751   0.0000000), wk =   0.0937500
        k(   19) = (   0.1250000   0.3608439   0.0000000), wk =   0.0937500
        k(   20) = (   0.1250000   0.4330127   0.0000000), wk =   0.0937500
        k(   21) = (   0.1250000   0.5051815   0.0000000), wk =   0.0937500
        k(   22) = (   0.1250000   0.5773503   0.0000000), wk =   0.0468750
        k(   23) = (   0.1875000   0.3247595   0.0000000), wk =   0.0468750
        k(   24) = (   0.1875000   0.3969283   0.0000000), wk =   0.0937500
        k(   25) = (   0.1875000   0.4690971   0.0000000), wk =   0.0937500
        k(   26) = (   0.1875000   0.5412659   0.0000000), wk =   0.0937500
        k(   27) = (   0.2500000   0.4330127   0.0000000), wk =   0.0468750
        k(   28) = (   0.2500000   0.5051815   0.0000000), wk =   0.0937500
        k(   29) = (   0.2500000   0.5773503   0.0000000), wk =   0.0468750
        k(   30) = (   0.3125000   0.5412659   0.0000000), wk =   0.0468750

     Dense  grid:   853823 G-vectors     FFT dimensions: (  50,  50, 768)

     Smooth grid:   302525 G-vectors     FFT dimensions: (  36,  36, 540)

     Estimated max dynamical RAM per process >     171.88 MB

     Estimated total dynamical RAM >       4.03 GB

     Initial potential from superposition of free atoms

     starting charge      91.9979, renormalised to      92.0000

     negative rho (up, down):  1.711E-04 0.000E+00


     %%%%%%%%%%%%%%%%%%%%%%%%%%%%%%%%%%%%%%%%%%%%%%%%%%%%%%%%%%%%%%%%%%%%%%%%
     %                                                                      %
     % You are using vdW-DF, which was implemented by the Thonhauser group. %
     % Please cite the following two papers that made this development      %
     % possible and the two reviews that describe the various versions:     %
     %                                                                      %
     %   T. Thonhauser et al., PRL 115, 136402 (2015).                      %
     %   T. Thonhauser et al., PRB 76, 125112 (2007).                       %
     %   K. Berland et al., Rep. Prog. Phys. 78, 066501 (2015).             %
     %   D.C. Langreth et al., J. Phys.: Condens. Matter 21, 084203 (2009). %
     %                                                                      %
     % If you are calculating stress with vdW-DF, please also cite:         %
     %                                                                      %
     %   R. Sabatini et al., J. Phys.: Condens. Matter 24, 424209 (2012).   %
     %                                                                      %
     %%%%%%%%%%%%%%%%%%%%%%%%%%%%%%%%%%%%%%%%%%%%%%%%%%%%%%%%%%%%%%%%%%%%%%%%

     %%%%%%%%%%%%%%%%%%%%%%%%%%%%%%%%%%%%%%%%%%%%%%%%%%%%%%%%%%%%%%%%%%%%%%%%
     %                                                                      %
     %  vdW-DF NEWS:                                                        %
     %                                                                      %
     %  * vdW-DF3 is now available. DOI: 10.1021/acs.jctc.0c00471           %
     %    use with input_dft = 'vdW-DF3-opt1' or 'vdW-DF3-opt2'             %
     %                                                                      %
     %  * Unscreened and range-separated hybrid vdW-DF-cx functionals       %
     %    DOI: 10.1063/1.4986522 and 10.1088/1361-648X/ac2ad2               %
     %    use with input_dft = 'vdW-DF-cx0'    and 'vdW-DF-ahcx'            %
     %  * Unscreened and range-separated hybrid vdW-DF2-b86r functionals    %
     %    DOI: 10.1063/1.4986522 and DOI: 10.1103/PhysRevX.12.041003        %
     %    use with input_dft = 'vdW-DF2-br0' and 'vdW-DF2-ahbr'             %
     %                                                                      %
     %%%%%%%%%%%%%%%%%%%%%%%%%%%%%%%%%%%%%%%%%%%%%%%%%%%%%%%%%%%%%%%%%%%%%%%%


     Starting wfcs are   56 randomized atomic wfcs
     Checking if some PAW data can be deallocated... 

     total cpu time spent up to now is       12.0 secs

     per-process dynamical memory:    79.7 Mb

     Self-consistent Calculation

     iteration #  1     ecut=    80.00 Ry     beta= 0.30
     Davidson diagonalization with overlap
     ethr =  1.00E-02,  avg # of iterations =  4.4

     Threshold (ethr) on eigenvalues was too large:
     Diagonalizing with lowered threshold

     Davidson diagonalization with overlap
     ethr =  4.49E-04,  avg # of iterations =  2.1

     negative rho (up, down):  5.328E-05 0.000E+00

     total cpu time spent up to now is       49.7 secs

     total energy              =   -2326.96303888 Ry
     estimated scf accuracy    <       0.46068895 Ry

     iteration #  2     ecut=    80.00 Ry     beta= 0.30
     Davidson diagonalization with overlap
     ethr =  5.01E-04,  avg # of iterations =  1.4

     negative rho (up, down):  1.856E-05 0.000E+00

     total cpu time spent up to now is       65.9 secs

     total energy              =   -2326.91606997 Ry
     estimated scf accuracy    <       0.24490908 Ry

     iteration #  3     ecut=    80.00 Ry     beta= 0.30
     Davidson diagonalization with overlap
     ethr =  2.66E-04,  avg # of iterations =  5.4

     negative rho (up, down):  3.895E-06 0.000E+00

     total cpu time spent up to now is       86.5 secs

     total energy              =   -2326.92296624 Ry
     estimated scf accuracy    <       0.03207637 Ry

     iteration #  4     ecut=    80.00 Ry     beta= 0.30
     Davidson diagonalization with overlap
     ethr =  3.49E-05,  avg # of iterations =  6.7

     negative rho (up, down):  1.671E-06 0.000E+00

     total cpu time spent up to now is      107.9 secs

     total energy              =   -2326.92311362 Ry
     estimated scf accuracy    <       0.01045312 Ry

     iteration #  5     ecut=    80.00 Ry     beta= 0.30
     Davidson diagonalization with overlap
     ethr =  1.14E-05,  avg # of iterations =  3.8

     negative rho (up, down):  5.369E-07 0.000E+00

     total cpu time spent up to now is      128.2 secs

     total energy              =   -2326.92220299 Ry
     estimated scf accuracy    <       0.00434438 Ry

     iteration #  6     ecut=    80.00 Ry     beta= 0.30
     Davidson diagonalization with overlap
     c_bands:  1 eigenvalues not converged
     c_bands:  1 eigenvalues not converged
     ethr =  4.72E-06,  avg # of iterations =  6.7

     negative rho (up, down):  2.983E-07 0.000E+00

     total cpu time spent up to now is      150.3 secs

     total energy              =   -2326.92221715 Ry
     estimated scf accuracy    <       0.00143995 Ry

     iteration #  7     ecut=    80.00 Ry     beta= 0.30
     Davidson diagonalization with overlap
     ethr =  1.57E-06,  avg # of iterations =  4.0

     negative rho (up, down):  2.127E-07 0.000E+00

     total cpu time spent up to now is      168.7 secs

     total energy              =   -2326.92206538 Ry
     estimated scf accuracy    <       0.00125047 Ry

     iteration #  8     ecut=    80.00 Ry     beta= 0.30
     Davidson diagonalization with overlap
     ethr =  1.36E-06,  avg # of iterations =  2.9

     negative rho (up, down):  9.570E-08 0.000E+00

     total cpu time spent up to now is      186.9 secs

     total energy              =   -2326.92206382 Ry
     estimated scf accuracy    <       0.00076925 Ry

     iteration #  9     ecut=    80.00 Ry     beta= 0.30
     Davidson diagonalization with overlap
     ethr =  8.36E-07,  avg # of iterations =  2.8

     negative rho (up, down):  2.260E-03 0.000E+00

     total cpu time spent up to now is      204.2 secs

     total energy              =   -2326.92209078 Ry
     estimated scf accuracy    <       0.00061696 Ry

     iteration # 10     ecut=    80.00 Ry     beta= 0.30
     Davidson diagonalization with overlap
     ethr =  6.71E-07,  avg # of iterations =  5.5

     negative rho (up, down):  3.044E-03 0.000E+00

     total cpu time spent up to now is      222.8 secs

     total energy              =   -2326.92205228 Ry
     estimated scf accuracy    <       0.00051291 Ry

     iteration # 11     ecut=    80.00 Ry     beta= 0.30
     Davidson diagonalization with overlap
     ethr =  5.58E-07,  avg # of iterations =  1.7

     negative rho (up, down):  6.084E-03 0.000E+00

     total cpu time spent up to now is      240.1 secs

     total energy              =   -2326.92190091 Ry
     estimated scf accuracy    <       0.00039818 Ry

     iteration # 12     ecut=    80.00 Ry     beta= 0.30
     Davidson diagonalization with overlap
     ethr =  4.33E-07,  avg # of iterations =  5.9

     negative rho (up, down):  5.714E-03 0.000E+00

     total cpu time spent up to now is      259.3 secs

     total energy              =   -2326.92190501 Ry
     estimated scf accuracy    <       0.00024202 Ry

     iteration # 13     ecut=    80.00 Ry     beta= 0.30
     Davidson diagonalization with overlap
     ethr =  2.63E-07,  avg # of iterations =  5.9

     negative rho (up, down):  4.455E-03 0.000E+00

     total cpu time spent up to now is      277.6 secs

     total energy              =   -2326.92182128 Ry
     estimated scf accuracy    <       0.00014067 Ry

     iteration # 14     ecut=    80.00 Ry     beta= 0.30
     Davidson diagonalization with overlap
     ethr =  1.53E-07,  avg # of iterations =  2.5

     negative rho (up, down):  3.499E-03 0.000E+00

     total cpu time spent up to now is      296.0 secs

     total energy              =   -2326.92186932 Ry
     estimated scf accuracy    <       0.00004910 Ry

     iteration # 15     ecut=    80.00 Ry     beta= 0.30
     Davidson diagonalization with overlap
     ethr =  5.34E-08,  avg # of iterations =  1.7

     negative rho (up, down):  1.548E-03 0.000E+00

     total cpu time spent up to now is      314.5 secs

     total energy              =   -2326.92193458 Ry
     estimated scf accuracy    <       0.00003815 Ry

     iteration # 16     ecut=    80.00 Ry     beta= 0.30
     Davidson diagonalization with overlap
     ethr =  4.15E-08,  avg # of iterations =  5.7

     negative rho (up, down):  9.228E-04 0.000E+00

     total cpu time spent up to now is      334.8 secs

     total energy              =   -2326.92194715 Ry
     estimated scf accuracy    <       0.00002012 Ry

     iteration # 17     ecut=    80.00 Ry     beta= 0.30
     Davidson diagonalization with overlap
     ethr =  2.19E-08,  avg # of iterations =  1.3

     negative rho (up, down):  7.364E-04 0.000E+00

     total cpu time spent up to now is      350.7 secs

     total energy              =   -2326.92195101 Ry
     estimated scf accuracy    <       0.00001382 Ry

     iteration # 18     ecut=    80.00 Ry     beta= 0.30
     Davidson diagonalization with overlap
     ethr =  1.50E-08,  avg # of iterations =  5.9

     negative rho (up, down):  5.658E-04 0.000E+00

     total cpu time spent up to now is      372.2 secs

     total energy              =   -2326.92195149 Ry
     estimated scf accuracy    <       0.00000306 Ry

     iteration # 19     ecut=    80.00 Ry     beta= 0.30
     Davidson diagonalization with overlap
     ethr =  3.33E-09,  avg # of iterations =  2.0

     negative rho (up, down):  2.448E-04 0.000E+00

     total cpu time spent up to now is      390.9 secs

     total energy              =   -2326.92195772 Ry
     estimated scf accuracy    <       0.00000140 Ry

     iteration # 20     ecut=    80.00 Ry     beta= 0.30
     Davidson diagonalization with overlap
     ethr =  1.52E-09,  avg # of iterations =  4.0

     negative rho (up, down):  2.396E-04 0.000E+00

     total cpu time spent up to now is      412.0 secs

     total energy              =   -2326.92195859 Ry
     estimated scf accuracy    <       0.00000028 Ry

     iteration # 21     ecut=    80.00 Ry     beta= 0.30
     Davidson diagonalization with overlap
     ethr =  2.99E-10,  avg # of iterations =  2.0

     negative rho (up, down):  1.639E-04 0.000E+00

     total cpu time spent up to now is      430.2 secs

     total energy              =   -2326.92195942 Ry
     estimated scf accuracy    <       0.00000014 Ry

     iteration # 22     ecut=    80.00 Ry     beta= 0.30
     Davidson diagonalization with overlap
     ethr =  1.47E-10,  avg # of iterations =  2.1

     negative rho (up, down):  1.604E-04 0.000E+00

     total cpu time spent up to now is      448.7 secs

     total energy              =   -2326.92195944 Ry
     estimated scf accuracy    <       0.00000007 Ry

     iteration # 23     ecut=    80.00 Ry     beta= 0.30
     Davidson diagonalization with overlap
     ethr =  7.07E-11,  avg # of iterations =  1.5

     negative rho (up, down):  1.926E-04 0.000E+00

     total cpu time spent up to now is      465.3 secs

     total energy              =   -2326.92195911 Ry
     estimated scf accuracy    <       0.00000004 Ry

     iteration # 24     ecut=    80.00 Ry     beta= 0.30
     Davidson diagonalization with overlap
     ethr =  4.31E-11,  avg # of iterations =  2.1

     negative rho (up, down):  2.018E-04 0.000E+00

     total cpu time spent up to now is      483.3 secs

     End of self-consistent calculation

          k = 0.0000 0.0000 0.0000 ( 37787 PWs)   bands (ev):

   -61.8970 -61.8961 -48.2918 -48.2918 -48.2915 -48.2915 -48.2901 -48.2901
   -48.2899 -48.2899 -48.2462 -48.2462 -48.2458 -48.2458 -48.2445 -48.2445
   -48.2445 -48.2445 -48.2276 -48.2270 -48.2259 -48.2257 -36.0154 -36.0143
   -35.9001 -35.9001 -35.8988 -35.8988 -15.2949 -15.2914 -14.4767 -14.4752
    -6.4380  -6.4350  -3.3615  -3.3614  -3.3553  -3.3553  -3.3382  -3.3359
    -1.5921  -1.5886  -1.0651  -1.0651  -1.0622  -1.0622   0.2282   0.2282
     0.2310   0.2310   2.9467   2.9467   2.9488   2.9489   3.0083

          k = 0.0000 0.0722 0.0000 ( 37755 PWs)   bands (ev):

   -61.8960 -61.8951 -48.2918 -48.2916 -48.2914 -48.2913 -48.2901 -48.2899
   -48.2899 -48.2897 -48.2463 -48.2462 -48.2459 -48.2458 -48.2446 -48.2446
   -48.2445 -48.2444 -48.2275 -48.2269 -48.2258 -48.2256 -36.0132 -36.0121
   -35.9107 -35.9094 -35.9026 -35.9012 -15.2381 -15.2347 -14.4472 -14.4457
    -6.3603  -6.3572  -3.8340  -3.8301  -3.3295  -3.3233  -2.9342  -2.9316
    -1.6299  -1.6273  -1.2548  -1.2519  -1.2121  -1.2090   0.1203   0.1229
     0.3412   0.3437   2.6174   2.6312   2.8981   2.9001   3.1211

          k = 0.0000 0.1443 0.0000 ( 37697 PWs)   bands (ev):

   -61.8933 -61.8924 -48.2917 -48.2914 -48.2911 -48.2907 -48.2900 -48.2899
   -48.2894 -48.2891 -48.2465 -48.2463 -48.2460 -48.2459 -48.2449 -48.2447
   -48.2445 -48.2444 -48.2272 -48.2267 -48.2256 -48.2253 -36.0068 -36.0057
   -35.9409 -35.9395 -35.9095 -35.9082 -15.0718 -15.0684 -14.3611 -14.3594
    -6.1350  -6.1320  -4.3198  -4.3154  -3.2542  -3.2481  -2.7148  -2.7128
    -2.0781  -2.0758  -1.4996  -1.4962  -1.4572  -1.4552   0.0012   0.0041
     0.5318   0.5337   2.0245   2.0384   2.7984   2.8002   3.3782

          k = 0.0000 0.2165 0.0000 ( 37653 PWs)   bands (ev):

   -61.8892 -61.8883 -48.2917 -48.2914 -48.2903 -48.2899 -48.2899 -48.2899
   -48.2886 -48.2883 -48.2468 -48.2465 -48.2462 -48.2459 -48.2452 -48.2448
   -48.2447 -48.2444 -48.2268 -48.2263 -48.2252 -48.2249 -35.9976 -35.9965
   -35.9853 -35.9840 -35.9198 -35.9185 -14.8088 -14.8055 -14.2247 -14.2228
    -5.7944  -5.7913  -4.7492  -4.7446  -3.2585  -3.2554  -3.2025  -3.1966
    -2.4359  -2.4345  -1.7233  -1.7196  -1.5578  -1.5566  -0.0302  -0.0272
     0.6382   0.6395   1.6626   1.6773   2.7329   2.7347   3.7502

          k = 0.0000 0.2887 0.0000 ( 37721 PWs)   bands (ev):

   -61.8843 -61.8834 -48.2917 -48.2914 -48.2900 -48.2898 -48.2894 -48.2890
   -48.2876 -48.2875 -48.2472 -48.2466 -48.2464 -48.2460 -48.2456 -48.2450
   -48.2448 -48.2445 -48.2264 -48.2258 -48.2247 -48.2245 -36.0384 -36.0370
   -35.9856 -35.9846 -35.9320 -35.9307 -14.4756 -14.4724 -14.0469 -14.0446
    -5.4829  -5.4793  -4.9890  -4.9851  -4.2805  -4.2771  -3.2569  -3.2512
    -2.6212  -2.6205  -1.8105  -1.8097  -1.7669  -1.7629   0.0513   0.0540
     0.6433   0.6443   1.7685   1.7847   2.7341   2.7359   4.2278

          k = 0.0000 0.3608 0.0000 ( 37749 PWs)   bands (ev):

   -61.8795 -61.8786 -48.2918 -48.2913 -48.2901 -48.2897 -48.2885 -48.2881
   -48.2867 -48.2866 -48.2476 -48.2468 -48.2465 -48.2461 -48.2461 -48.2452
   -48.2450 -48.2446 -48.2259 -48.2254 -48.2243 -48.2240 -36.0903 -36.0889
   -35.9743 -35.9733 -35.9442 -35.9429 -14.1273 -14.1241 -13.8274 -13.8249
    -5.5997  -5.5955  -5.2379  -5.2347  -4.7249  -4.7217  -3.4055  -3.4000
    -2.9811  -2.9808  -2.0758  -2.0750  -1.6616  -1.6577   0.3111   0.3132
     0.6202   0.6214   2.1874   2.2036   2.7707   2.7727   4.7843

          k = 0.0000 0.4330 0.0000 ( 37785 PWs)   bands (ev):

   -61.8753 -61.8745 -48.2918 -48.2912 -48.2901 -48.2896 -48.2877 -48.2874
   -48.2860 -48.2858 -48.2480 -48.2469 -48.2467 -48.2464 -48.2461 -48.2453
   -48.2451 -48.2446 -48.2255 -48.2250 -48.2239 -48.2236 -36.1341 -36.1326
   -35.9647 -35.9637 -35.9545 -35.9531 -13.8634 -13.8601 -13.5485 -13.5459
    -6.2002  -6.1963  -5.5777  -5.5746  -4.5351  -4.5326  -3.5646  -3.5593
    -3.2355  -3.2347  -2.2492  -2.2485  -1.5279  -1.5243   0.6347   0.6364
     0.6764   0.6777   2.7047   2.7179   2.8072   2.8095   5.1242

          k = 0.0000 0.5052 0.0000 ( 37822 PWs)   bands (ev):

   -61.8726 -61.8717 -48.2919 -48.2911 -48.2902 -48.2895 -48.2872 -48.2869
   -48.2854 -48.2853 -48.2482 -48.2470 -48.2468 -48.2467 -48.2462 -48.2454
   -48.2452 -48.2447 -48.2253 -48.2247 -48.2236 -48.2234 -36.1631 -36.1616
   -35.9614 -35.9600 -35.9582 -35.9572 -13.7183 -13.7147 -13.2866 -13.2841
    -6.7577  -6.7539  -5.5990  -5.5965  -4.7022  -4.6999  -3.6767  -3.6715
    -3.1154  -3.1140  -2.3773  -2.3767  -1.4407  -1.4375   0.6838   0.6861
     1.0180   1.0186   2.8297   2.8322   3.1549   3.1624   4.6725

          k = 0.0000-0.5774 0.0000 ( 37832 PWs)   bands (ev):

   -61.8716 -61.8707 -48.2919 -48.2911 -48.2902 -48.2895 -48.2870 -48.2867
   -48.2853 -48.2852 -48.2483 -48.2470 -48.2468 -48.2467 -48.2462 -48.2454
   -48.2453 -48.2447 -48.2252 -48.2247 -48.2235 -48.2233 -36.1733 -36.1718
   -35.9638 -35.9624 -35.9560 -35.9550 -13.6708 -13.6671 -13.1801 -13.1776
    -6.9629  -6.9591  -5.5694  -5.5674  -4.8451  -4.8424  -3.7164  -3.7111
    -2.9868  -2.9852  -2.4458  -2.4452  -1.4130  -1.4099   0.7114   0.7138
     1.1651   1.1653   2.8370   2.8395   3.3773   3.3805   4.3476

          k = 0.0625 0.1083 0.0000 ( 37709 PWs)   bands (ev):

   -61.8942 -61.8933 -48.2917 -48.2914 -48.2913 -48.2909 -48.2900 -48.2899
   -48.2895 -48.2893 -48.2464 -48.2463 -48.2460 -48.2459 -48.2448 -48.2446
   -48.2445 -48.2445 -48.2273 -48.2268 -48.2257 -48.2254 -36.0088 -36.0078
   -35.9308 -35.9295 -35.9076 -35.9062 -15.1265 -15.1231 -14.3894 -14.3878
    -6.2083  -6.2053  -4.1908  -4.1865  -3.2830  -3.2769  -2.7353  -2.7331
    -1.8773  -1.8756  -1.4998  -1.4964  -1.3818  -1.3797   0.0618   0.0646
     0.4315   0.4335   2.2517   2.2663   2.7538   2.7563   3.3008

          k = 0.0625 0.1804 0.0000 ( 37703 PWs)   bands (ev):

   -61.8908 -61.8899 -48.2917 -48.2914 -48.2906 -48.2903 -48.2899 -48.2899
   -48.2889 -48.2887 -48.2467 -48.2464 -48.2461 -48.2459 -48.2451 -48.2448
   -48.2446 -48.2445 -48.2270 -48.2264 -48.2253 -48.2251 -36.0009 -35.9998
   -35.9674 -35.9661 -35.9170 -35.9157 -14.9114 -14.9081 -14.2783 -14.2765
    -5.9204  -5.9173  -4.6045  -4.6000  -3.2773  -3.2715  -2.8117  -2.8094
    -2.4543  -2.4521  -1.7545  -1.7514  -1.4137  -1.4120   0.0610   0.0639
     0.4321   0.4334   1.9320   1.9466   2.5800   2.5823   3.6108

          k = 0.0625 0.2526 0.0000 ( 37702 PWs)   bands (ev):

   -61.8863 -61.8854 -48.2917 -48.2913 -48.2899 -48.2898 -48.2898 -48.2894
   -48.2881 -48.2879 -48.2471 -48.2465 -48.2463 -48.2460 -48.2455 -48.2449
   -48.2448 -48.2445 -48.2266 -48.2260 -48.2249 -48.2247 -36.0151 -36.0137
   -35.9902 -35.9892 -35.9294 -35.9281 -14.6113 -14.6080 -14.1223 -14.1202
    -5.5528  -5.5497  -4.9487  -4.9442  -3.8363  -3.8326  -3.2231  -3.2183
    -2.6001  -2.5985  -1.9644  -1.9620  -1.4447  -1.4433  -0.0028  -0.0005
     0.5117   0.5134   1.8250   1.8383   2.5503   2.5544   4.0344

          k = 0.0625 0.3248 0.0000 ( 37734 PWs)   bands (ev):

   -61.8814 -61.8805 -48.2917 -48.2912 -48.2900 -48.2896 -48.2889 -48.2886
   -48.2872 -48.2870 -48.2475 -48.2467 -48.2464 -48.2461 -48.2459 -48.2451
   -48.2449 -48.2446 -48.2261 -48.2256 -48.2245 -48.2242 -36.0661 -36.0646
   -35.9790 -35.9780 -35.9428 -35.9414 -14.2629 -14.2597 -13.9287 -13.9263
    -5.4458  -5.4417  -4.9249  -4.9218  -4.7806  -4.7769  -3.4625  -3.4581
    -2.7257  -2.7244  -2.2795  -2.2772  -1.4345  -1.4323   0.0481   0.0498
     0.6606   0.6618   1.9623   1.9736   2.6419   2.6487   4.5576

          k = 0.0625 0.3969 0.0000 ( 37770 PWs)   bands (ev):

   -61.8769 -61.8760 -48.2917 -48.2911 -48.2900 -48.2895 -48.2881 -48.2878
   -48.2864 -48.2862 -48.2478 -48.2469 -48.2466 -48.2462 -48.2461 -48.2453
   -48.2450 -48.2447 -48.2257 -48.2251 -48.2240 -48.2238 -36.1128 -36.1113
   -35.9686 -35.9676 -35.9551 -35.9537 -13.9468 -13.9435 -13.6845 -13.6819
    -5.8159  -5.8119  -5.4816  -5.4783  -4.5593  -4.5565  -3.7076  -3.7035
    -2.9898  -2.9884  -2.4975  -2.4955  -1.3665  -1.3641   0.2453   0.2463
     0.8176   0.8188   2.2515   2.2578   2.8132   2.8228   5.1145

          k = 0.0625 0.4691 0.0000 ( 37798 PWs)   bands (ev):

   -61.8735 -61.8726 -48.2917 -48.2910 -48.2901 -48.2894 -48.2875 -48.2872
   -48.2857 -48.2856 -48.2481 -48.2470 -48.2466 -48.2465 -48.2462 -48.2454
   -48.2451 -48.2447 -48.2254 -48.2248 -48.2237 -48.2235 -36.1483 -36.1469
   -35.9649 -35.9635 -35.9601 -35.9591 -13.7493 -13.7458 -13.3989 -13.3963
    -6.4709  -6.4671  -5.5880  -5.5851  -4.5538  -4.5514  -3.8015  -3.7970
    -3.1048  -3.1030  -2.6029  -2.6012  -1.3265  -1.3242   0.4872   0.4884
     0.9999   1.0008   2.4781   2.4805   3.0709   3.0797   5.1261

          k = 0.0625 0.5413 0.0000 ( 37791 PWs)   bands (ev):

   -61.8716 -61.8707 -48.2917 -48.2910 -48.2901 -48.2894 -48.2871 -48.2868
   -48.2854 -48.2853 -48.2483 -48.2471 -48.2467 -48.2467 -48.2462 -48.2455
   -48.2451 -48.2447 -48.2252 -48.2246 -48.2235 -48.2233 -36.1675 -36.1660
   -35.9698 -35.9684 -35.9560 -35.9550 -13.6561 -13.6525 -13.2038 -13.2012
    -6.8578  -6.8540  -5.5705  -5.5682  -4.7636  -4.7611  -3.8190  -3.8142
    -2.9916  -2.9898  -2.6752  -2.6738  -1.3276  -1.3254   0.6672   0.6693
     1.1297   1.1302   2.5756   2.5778   3.3165   3.3206   4.6451

          k = 0.1250 0.2165 0.0000 ( 37731 PWs)   bands (ev):

   -61.8870 -61.8861 -48.2916 -48.2913 -48.2900 -48.2899 -48.2897 -48.2896
   -48.2883 -48.2881 -48.2470 -48.2465 -48.2462 -48.2461 -48.2454 -48.2448
   -48.2447 -48.2446 -48.2266 -48.2261 -48.2250 -48.2247 -36.0053 -36.0039
   -35.9921 -35.9910 -35.9300 -35.9286 -14.6578 -14.6546 -14.1481 -14.1461
    -5.5835  -5.5805  -4.9164  -4.9117  -3.6947  -3.6902  -3.0100  -3.0079
    -2.8646  -2.8604  -1.9322  -1.9301  -1.3234  -1.3220   0.0522   0.0533
     0.3123   0.3152   2.1559   2.1731   2.1843   2.1864   3.9720

          k = 0.1250 0.2887 0.0000 ( 37723 PWs)   bands (ev):

   -61.8825 -61.8816 -48.2915 -48.2911 -48.2898 -48.2895 -48.2892 -48.2889
   -48.2875 -48.2873 -48.2474 -48.2466 -48.2463 -48.2462 -48.2458 -48.2449
   -48.2448 -48.2447 -48.2262 -48.2257 -48.2246 -48.2243 -36.0488 -36.0474
   -35.9818 -35.9807 -35.9459 -35.9446 -14.3354 -14.3322 -13.9809 -13.9785
    -5.2698  -5.2658  -5.0807  -5.0770  -4.4625  -4.4587  -3.4624  -3.4593
    -2.9542  -2.9506  -2.2000  -2.1986  -1.1967  -1.1953  -0.1606  -0.1593
     0.6053   0.6076   1.8723   1.8748   2.4671   2.4841   4.4441

          k = 0.1250 0.3608 0.0000 ( 37761 PWs)   bands (ev):

   -61.8780 -61.8771 -48.2914 -48.2909 -48.2898 -48.2893 -48.2885 -48.2882
   -48.2868 -48.2866 -48.2477 -48.2468 -48.2465 -48.2462 -48.2461 -48.2452
   -48.2449 -48.2448 -48.2258 -48.2253 -48.2241 -48.2239 -36.0917 -36.0903
   -35.9719 -35.9709 -35.9617 -35.9603 -13.9953 -13.9921 -13.7800 -13.7773
    -5.4727  -5.4684  -5.2624  -5.2590  -4.6665  -4.6635  -3.8505  -3.8471
    -3.0535  -3.0505  -2.6302  -2.6288  -1.0658  -1.0642  -0.1253  -0.1242
     0.8883   0.8897   1.7905   1.7928   2.7775   2.7928   5.0023

          k = 0.1250 0.4330 0.0000 ( 37768 PWs)   bands (ev):

   -61.8742 -61.8733 -48.2914 -48.2907 -48.2897 -48.2891 -48.2879 -48.2876
   -48.2862 -48.2860 -48.2480 -48.2470 -48.2465 -48.2464 -48.2463 -48.2455
   -48.2449 -48.2449 -48.2254 -48.2249 -48.2238 -48.2236 -36.1277 -36.1263
   -35.9770 -35.9756 -35.9617 -35.9607 -13.7453 -13.7420 -13.5168 -13.5141
    -6.0623  -6.0585  -5.5215  -5.5180  -4.3957  -4.3931  -4.0777  -4.0741
    -3.1651  -3.1625  -2.9789  -2.9771  -1.0336  -1.0324   0.1184   0.1192
     1.0788   1.0800   1.9006   1.9025   3.0597   3.0702   5.4693

          k = 0.1250 0.5052 0.0000 ( 37794 PWs)   bands (ev):

   -61.8716 -61.8707 -48.2913 -48.2906 -48.2897 -48.2890 -48.2875 -48.2872
   -48.2857 -48.2856 -48.2481 -48.2472 -48.2466 -48.2466 -48.2463 -48.2456
   -48.2450 -48.2449 -48.2252 -48.2247 -48.2235 -48.2233 -36.1516 -36.1502
   -35.9861 -35.9847 -35.9560 -35.9550 -13.6134 -13.6099 -13.2679 -13.2652
    -6.5656  -6.5618  -5.5547  -5.5518  -4.5684  -4.5658  -4.0294  -4.0256
    -3.2464  -3.2441  -3.0428  -3.0409  -1.0908  -1.0898   0.4563   0.4575
     1.1282   1.1293   2.0675   2.0692   3.2498   3.2549   5.2911

          k = 0.1250 0.5774 0.0000 ( 37780 PWs)   bands (ev):

   -61.8707 -61.8698 -48.2913 -48.2906 -48.2897 -48.2890 -48.2873 -48.2870
   -48.2855 -48.2855 -48.2482 -48.2473 -48.2466 -48.2466 -48.2464 -48.2457
   -48.2450 -48.2449 -48.2251 -48.2246 -48.2235 -48.2232 -36.1600 -36.1585
   -35.9893 -35.9880 -35.9540 -35.9530 -13.5698 -13.5662 -13.1685 -13.1659
    -6.7491  -6.7454  -5.5467  -5.5441  -4.6830  -4.6803  -4.0258  -4.0218
    -3.2756  -3.2734  -2.9974  -2.9955  -1.1299  -1.1289   0.6578   0.6596
     1.0798   1.0805   2.1506   2.1523   3.3157   3.3185   5.0179

          k = 0.1875 0.3248 0.0000 ( 37725 PWs)   bands (ev):

   -61.8783 -61.8775 -48.2913 -48.2908 -48.2896 -48.2892 -48.2887 -48.2884
   -48.2870 -48.2868 -48.2477 -48.2467 -48.2465 -48.2463 -48.2461 -48.2450
   -48.2450 -48.2449 -48.2258 -48.2253 -48.2242 -48.2239 -36.0822 -36.0808
   -35.9740 -35.9729 -35.9652 -35.9640 -14.0106 -14.0075 -13.8146 -13.8120
    -5.3404  -5.3359  -5.0938  -5.0900  -4.7554  -4.7526  -3.8534  -3.8509
    -3.3344  -3.3304  -2.5109  -2.5097  -0.8973  -0.8959  -0.3051  -0.3041
     0.8865   0.8881   1.6041   1.6051   2.7657   2.7829   4.9571

          k = 0.1875 0.3969 0.0000 ( 37753 PWs)   bands (ev):

   -61.8745 -61.8736 -48.2911 -48.2904 -48.2894 -48.2888 -48.2882 -48.2879
   -48.2865 -48.2863 -48.2479 -48.2470 -48.2466 -48.2463 -48.2463 -48.2453
   -48.2451 -48.2449 -48.2255 -48.2249 -48.2238 -48.2236 -36.1109 -36.1095
   -35.9893 -35.9879 -35.9625 -35.9615 -13.7077 -13.7045 -13.6172 -13.6144
    -5.6935  -5.6897  -5.4441  -5.4401  -4.3549  -4.3521  -4.2055  -4.2027
    -3.6600  -3.6566  -2.9097  -2.9084  -0.6909  -0.6899  -0.2370  -0.2363
     1.1082   1.1093   1.5233   1.5245   3.0614   3.0729   5.5192

          k = 0.1875 0.4691 0.0000 ( 37759 PWs)   bands (ev):

   -61.8716 -61.8707 -48.2909 -48.2902 -48.2892 -48.2886 -48.2879 -48.2876
   -48.2862 -48.2860 -48.2480 -48.2472 -48.2467 -48.2464 -48.2463 -48.2456
   -48.2451 -48.2448 -48.2252 -48.2247 -48.2235 -48.2233 -36.1318 -36.1304
   -36.0064 -36.0050 -35.9560 -35.9550 -13.5473 -13.5439 -13.3549 -13.3521
    -6.1777  -6.1740  -5.5114  -5.5078  -4.4274  -4.4245  -4.1187  -4.1159
    -3.8856  -3.8828  -3.1797  -3.1781  -0.7424  -0.7419   0.1050   0.1057
     1.1484   1.1495   1.6743   1.6755   3.2289   3.2343   5.7301

          k = 0.1875 0.5413 0.0000 ( 37793 PWs)   bands (ev):

   -61.8700 -61.8692 -48.2908 -48.2900 -48.2891 -48.2884 -48.2877 -48.2874
   -48.2860 -48.2859 -48.2481 -48.2474 -48.2468 -48.2465 -48.2463 -48.2458
   -48.2452 -48.2448 -48.2251 -48.2245 -48.2234 -48.2232 -36.1428 -36.1413
   -36.0160 -36.0146 -35.9524 -35.9514 -13.4697 -13.4662 -13.1854 -13.1826
    -6.4550  -6.4514  -5.5399  -5.5367  -4.5210  -4.5179  -4.1615  -4.1584
    -3.9603  -3.9581  -3.2009  -3.1990  -0.8303  -0.8300   0.4718   0.4726
     1.0009   1.0021   1.8852   1.8863   3.2262   3.2288   5.6397

          k = 0.2500 0.4330 0.0000 ( 37711 PWs)   bands (ev):

   -61.8716 -61.8707 -48.2906 -48.2899 -48.2889 -48.2883 -48.2881 -48.2878
   -48.2864 -48.2862 -48.2480 -48.2471 -48.2469 -48.2464 -48.2463 -48.2455
   -48.2454 -48.2448 -48.2252 -48.2247 -48.2235 -48.2233 -36.1214 -36.1200
   -36.0170 -36.0156 -35.9560 -35.9550 -13.4854 -13.4822 -13.4253 -13.4223
    -5.9572  -5.9535  -5.4799  -5.4759  -4.4089  -4.4065  -4.2489  -4.2456
    -4.0444  -4.0415  -3.2754  -3.2741  -0.3316  -0.3310  -0.3108  -0.3097
     1.1438   1.1447   1.5494   1.5505   3.2273   3.2327   5.9240

          k = 0.2500 0.5052 0.0000 ( 37776 PWs)   bands (ev):

   -61.8697 -61.8688 -48.2902 -48.2895 -48.2886 -48.2882 -48.2879 -48.2878
   -48.2865 -48.2862 -48.2480 -48.2474 -48.2470 -48.2464 -48.2463 -48.2458
   -48.2455 -48.2448 -48.2250 -48.2245 -48.2233 -48.2232 -36.1240 -36.1225
   -36.0400 -36.0386 -35.9516 -35.9506 -13.3757 -13.3724 -13.2383 -13.2353
    -6.1049  -6.1013  -5.5316  -5.5278  -4.6683  -4.6648  -4.3861  -4.3840
    -3.9706  -3.9683  -3.5133  -3.5117  -0.4339  -0.4338   0.0618   0.0623
     0.9640   0.9654   1.8410   1.8421   3.1564   3.1588   5.7915

          k = 0.2500 0.5774 0.0000 ( 37791 PWs)   bands (ev):

   -61.8690 -61.8681 -48.2901 -48.2893 -48.2884 -48.2882 -48.2879 -48.2877
   -48.2865 -48.2863 -48.2479 -48.2475 -48.2470 -48.2463 -48.2463 -48.2459
   -48.2455 -48.2447 -48.2250 -48.2245 -48.2233 -48.2232 -36.1234 -36.1219
   -36.0496 -36.0482 -35.9500 -35.9490 -13.3371 -13.3337 -13.1684 -13.1654
    -6.1478  -6.1443  -5.5618  -5.5581  -4.8213  -4.8177  -4.2064  -4.2042
    -4.1868  -4.1849  -3.5141  -3.5123  -0.4847  -0.4847   0.3205   0.3205
     0.7568   0.7587   2.0601   2.0610   3.0195   3.0213   5.6864

          k = 0.3125 0.5413 0.0000 ( 37789 PWs)   bands (ev):

   -61.8686 -61.8677 -48.2896 -48.2889 -48.2885 -48.2882 -48.2879 -48.2873
   -48.2869 -48.2866 -48.2478 -48.2475 -48.2472 -48.2462 -48.2462 -48.2459
   -48.2458 -48.2447 -48.2249 -48.2244 -48.2232 -48.2232 -36.1059 -36.1045
   -36.0721 -36.0707 -35.9492 -35.9482 -13.2577 -13.2543 -13.1958 -13.1927
    -5.8436  -5.8401  -5.5715  -5.5676  -5.2609  -5.2575  -4.2195  -4.2176
    -3.8814  -3.8794  -3.8789  -3.8779  -0.1474  -0.1468   0.0300   0.0302
     0.6571   0.6593   2.2679   2.2691   2.8323   2.8339   5.6174

     the Fermi energy is    -0.2964 ev

!    total energy              =   -2326.92195877 Ry
     total all-electron energy =    -35628.669788 Ry
     estimated scf accuracy    <          6.4E-09 Ry
     smearing contrib. (-TS)   =       0.00090231 Ry
     internal energy E=F+TS    =   -2326.92286108 Ry

     The total energy is F=E-TS. E is the sum of the following terms:
     one-electron contribution =  -19174.24886838 Ry
     hartree contribution      =    9575.35321869 Ry
     xc contribution           =    -152.42422226 Ry
     ewald contribution        =    8434.91161237 Ry
     one-center paw contrib.   =   -1010.51460151 Ry

     convergence has been achieved in  24 iterations

     Writing all to output data dir ./tmp/cleave_027/mose2_cleave_027.save/ :
     XML data file, charge density, pseudopotentials, collected wavefunctions

     init_run     :     11.66s CPU     11.86s WALL (       1 calls)
     electrons    :    463.45s CPU    471.33s WALL (       1 calls)

     Called by init_run:
     wfcinit      :      5.32s CPU      5.35s WALL (       1 calls)
     potinit      :      5.71s CPU      5.75s WALL (       1 calls)
     hinit0       :      0.05s CPU      0.06s WALL (       1 calls)

     Called by electrons:
     c_bands      :    386.41s CPU    387.85s WALL (      25 calls)
     sum_band     :     50.99s CPU     53.81s WALL (      25 calls)
     v_of_rho     :     15.30s CPU     16.23s WALL (      25 calls)
     newd         :      8.97s CPU     11.68s WALL (      25 calls)
     PAW_pot      :      1.55s CPU      1.59s WALL (      25 calls)
     mix_rho      :      6.04s CPU      6.06s WALL (      25 calls)
     vdW_kernel   :      5.26s CPU      5.27s WALL (       1 calls)

     Called by c_bands:
     init_us_2    :      3.77s CPU      3.79s WALL (    1530 calls)
     cegterg      :    379.52s CPU    380.90s WALL (     750 calls)

     Called by *egterg:
     cdiaghg      :     12.38s CPU     12.40s WALL (    3421 calls)
     h_psi        :    173.55s CPU    174.18s WALL (    3481 calls)
     s_psi        :     40.46s CPU     40.50s WALL (    3481 calls)
     g_psi        :      0.74s CPU      0.74s WALL (    2701 calls)

     Called by h_psi:
     h_psi:calbec :     48.33s CPU     48.51s WALL (    3481 calls)
     vloc_psi     :     72.86s CPU     73.29s WALL (    3481 calls)
                                        0.00s GPU  (    3481 calls)
     add_vuspsi   :     51.63s CPU     51.66s WALL (    3481 calls)

     General routines
     calbec       :     69.45s CPU     69.68s WALL (    4231 calls)
     fft          :      5.25s CPU      5.31s WALL (    1574 calls)
     ffts         :      2.09s CPU      2.09s WALL (    2879 calls)
     fftw         :     77.93s CPU     78.37s WALL (  224600 calls)
     interpolate  :      0.11s CPU      0.11s WALL (      25 calls)

     Parallel routines

     PWSCF        :   7m55.82s CPU   8m 4.14s WALL


   This run was terminated on:  12:24: 0  20Jun2026            

=------------------------------------------------------------------------------=
   JOB DONE.
=------------------------------------------------------------------------------=
Note: The following floating-point exceptions are signalling: IEEE_UNDERFLOW_FLAG IEEE_DENORMAL
Note: The following floating-point exceptions are signalling: IEEE_UNDERFLOW_FLAG IEEE_DENORMAL
Note: The following floating-point exceptions are signalling: IEEE_UNDERFLOW_FLAG IEEE_DENORMAL
Note: The following floating-point exceptions are signalling: IEEE_UNDERFLOW_FLAG IEEE_DENORMAL
Note: The following floating-point exceptions are signalling: IEEE_UNDERFLOW_FLAG IEEE_DENORMAL
Note: The following floating-point exceptions are signalling: IEEE_UNDERFLOW_FLAG IEEE_DENORMAL
Note: The following floating-point exceptions are signalling: IEEE_UNDERFLOW_FLAG IEEE_DENORMAL
Note: The following floating-point exceptions are signalling: IEEE_UNDERFLOW_FLAG IEEE_DENORMAL
Note: The following floating-point exceptions are signalling: IEEE_UNDERFLOW_FLAG IEEE_DENORMAL
Note: The following floating-point exceptions are signalling: IEEE_UNDERFLOW_FLAG IEEE_DENORMAL
Note: The following floating-point exceptions are signalling: IEEE_UNDERFLOW_FLAG IEEE_DENORMAL
Note: The following floating-point exceptions are signalling: IEEE_UNDERFLOW_FLAG IEEE_DENORMAL
Note: The following floating-point exceptions are signalling: IEEE_UNDERFLOW_FLAG IEEE_DENORMAL
Note: The following floating-point exceptions are signalling: IEEE_UNDERFLOW_FLAG IEEE_DENORMAL
Note: The following floating-point exceptions are signalling: IEEE_UNDERFLOW_FLAG IEEE_DENORMAL
Note: The following floating-point exceptions are signalling: IEEE_UNDERFLOW_FLAG IEEE_DENORMAL
Note: The following floating-point exceptions are signalling: IEEE_UNDERFLOW_FLAG IEEE_DENORMAL
Note: The following floating-point exceptions are signalling: IEEE_UNDERFLOW_FLAG IEEE_DENORMAL
Note: The following floating-point exceptions are signalling: IEEE_UNDERFLOW_FLAG IEEE_DENORMAL
Note: The following floating-point exceptions are signalling: IEEE_UNDERFLOW_FLAG IEEE_DENORMAL
Note: The following floating-point exceptions are signalling: IEEE_UNDERFLOW_FLAG IEEE_DENORMAL
Note: The following floating-point exceptions are signalling: IEEE_UNDERFLOW_FLAG IEEE_DENORMAL
Note: The following floating-point exceptions are signalling: IEEE_UNDERFLOW_FLAG IEEE_DENORMAL
Note: The following floating-point exceptions are signalling: IEEE_UNDERFLOW_FLAG IEEE_DENORMAL
