
     Program PWSCF v.7.5 starts on 20Jun2026 at 11:36:31 

     This program is part of the open-source Quantum ESPRESSO suite
     for quantum simulation of materials; please cite
         "P. Giannozzi et al., J. Phys.:Condens. Matter 21 395502 (2009);
         "P. Giannozzi et al., J. Phys.:Condens. Matter 29 465901 (2017);
         "P. Giannozzi et al., J. Chem. Phys. 152 154105 (2020);
          URL http://www.quantum-espresso.org", 
     in publications or presentations arising from this work. More details at
     http://www.quantum-espresso.org/quote

     Parallel version (MPI), running on    24 processors

     MPI processes distributed on     1 nodes
     6411 MiB available memory on the printing compute node when the environment starts

     Waiting for input...
     Reading input from standard input

     Current dimensions of program PWSCF are:
     Max number of different atomic species (ntypx) = 10
     Max number of k-points (npk) =  40000
     Max angular momentum in pseudopotentials (lmaxx) =  4
     file Mo.pbe-spn-kjpaw_psl.1.0.0.UPF: wavefunction(s)  4S 4D renormalized
     file Se.pbe-dn-kjpaw_psl.1.0.0.UPF: wavefunction(s)  4S 4P 3D renormalized

     IMPORTANT: XC functional enforced from input :
     Exchange-correlation= VDW-DF2-B86R
                           (   1   4  26   0   2   0   0)
     Any further DFT definition will be discarded
     Please, verify this is what you really want


     R & G space division:  proc/nbgrp/npool/nimage =      24
     Subspace diagonalization in iterative solution of the eigenvalue problem:
     a serial algorithm will be used


     Parallelization info
     --------------------
     sticks:   dense  smooth     PW     G-vecs:    dense   smooth      PW
     Min          69      35     10                35537    12585    1924
     Max          70      36     11                35620    12648    1981
     Sum        1675     847    241               853823   302525   46513

     Using Slab Decomposition



     bravais-lattice index     =            4
     lattice parameter (alat)  =       6.1794  a.u.
     unit-cell volume          =    3124.5879 (a.u.)^3
     number of atoms/cell      =            6
     number of atomic types    =            2
     number of electrons       =        92.00
     number of Kohn-Sham states=           55
     kinetic-energy cutoff     =      80.0000  Ry
     charge density cutoff     =     640.0000  Ry
     scf convergence threshold =      1.0E-08
     mixing beta               =       0.3000
     number of iterations used =            8  local-TF  mixing
     Exchange-correlation= VDW-DF2-B86R
                           (   1   4  26   0   2   0   0)

     celldm(1)=   6.179404  celldm(2)=   0.000000  celldm(3)=  15.290520
     celldm(4)=   0.000000  celldm(5)=   0.000000  celldm(6)=   0.000000

     crystal axes: (cart. coord. in units of alat)
               a(1) = (   1.000000   0.000000   0.000000 )  
               a(2) = (  -0.500000   0.866025   0.000000 )  
               a(3) = (   0.000000   0.000000  15.290520 )  

     reciprocal axes: (cart. coord. in units 2 pi/alat)
               b(1) = (  1.000000  0.577350 -0.000000 )  
               b(2) = (  0.000000  1.154701  0.000000 )  
               b(3) = (  0.000000 -0.000000  0.065400 )  


     PseudoPot. # 1 for Mo read from file:
     ./pseudo/Mo.pbe-spn-kjpaw_psl.1.0.0.UPF
     MD5 check sum: 4396e0c640fcce5c25f020efccf1ab12
     Pseudo is Projector augmented-wave + core cor, Zval = 14.0
     Generated using &quot;atomic&quot; code by A. Dal Corso  v.6.3
     Shape of augmentation charge: PSQ
     Using radial grid of 1229 points,  6 beta functions with: 
                l(1) =   0
                l(2) =   0
                l(3) =   1
                l(4) =   1
                l(5) =   2
                l(6) =   2
     Q(r) pseudized with 0 coefficients 


     PseudoPot. # 2 for Se read from file:
     ./pseudo/Se.pbe-dn-kjpaw_psl.1.0.0.UPF
     MD5 check sum: ac240dd2bae32a30e0bf3a38df9c8785
     Pseudo is Projector augmented-wave + core cor, Zval = 16.0
     Generated using &quot;atomic&quot; code by A. Dal Corso  v.6.3
     Shape of augmentation charge: PSQ
     Using radial grid of 1211 points,  6 beta functions with: 
                l(1) =   0
                l(2) =   0
                l(3) =   1
                l(4) =   1
                l(5) =   2
                l(6) =   2
     Q(r) pseudized with 0 coefficients 


     atomic species   valence    mass     pseudopotential
     Mo               14.00    95.96000     Mo( 1.00)
     Se               16.00    78.96000     Se( 1.00)

      6 Sym. Ops. (no inversion) found



   Cartesian axes

     site n.     atom                  positions (alat units)
         1        Se     tau(   1) = (  -0.0000005   0.5773506   6.1238532  )
         2        Mo     tau(   2) = (   0.0000000   0.0000000   6.6502752  )
         3        Se     tau(   3) = (   0.5000005   0.2886748   7.1775994  )
         4        Se     tau(   4) = (  -0.0000005   0.5773506   9.4579052  )
         5        Mo     tau(   5) = (   0.5000005   0.2886748   9.9850917  )
         6        Se     tau(   6) = (   0.0000000   0.0000000  10.5122324  )

     number of k points=    30  Methfessel-Paxton smearing, width (Ry)=  0.0200
                       cart. coord. in units 2pi/alat
        k(    1) = (   0.0000000   0.0000000   0.0000000), wk =   0.0078125
        k(    2) = (   0.0000000   0.0721688   0.0000000), wk =   0.0468750
        k(    3) = (   0.0000000   0.1443376   0.0000000), wk =   0.0468750
        k(    4) = (   0.0000000   0.2165064   0.0000000), wk =   0.0468750
        k(    5) = (   0.0000000   0.2886751   0.0000000), wk =   0.0468750
        k(    6) = (   0.0000000   0.3608439   0.0000000), wk =   0.0468750
        k(    7) = (   0.0000000   0.4330127   0.0000000), wk =   0.0468750
        k(    8) = (   0.0000000   0.5051815   0.0000000), wk =   0.0468750
        k(    9) = (   0.0000000  -0.5773503   0.0000000), wk =   0.0234375
        k(   10) = (   0.0625000   0.1082532   0.0000000), wk =   0.0468750
        k(   11) = (   0.0625000   0.1804220   0.0000000), wk =   0.0937500
        k(   12) = (   0.0625000   0.2525907   0.0000000), wk =   0.0937500
        k(   13) = (   0.0625000   0.3247595   0.0000000), wk =   0.0937500
        k(   14) = (   0.0625000   0.3969283   0.0000000), wk =   0.0937500
        k(   15) = (   0.0625000   0.4690971   0.0000000), wk =   0.0937500
        k(   16) = (   0.0625000   0.5412659   0.0000000), wk =   0.0937500
        k(   17) = (   0.1250000   0.2165064   0.0000000), wk =   0.0468750
        k(   18) = (   0.1250000   0.2886751   0.0000000), wk =   0.0937500
        k(   19) = (   0.1250000   0.3608439   0.0000000), wk =   0.0937500
        k(   20) = (   0.1250000   0.4330127   0.0000000), wk =   0.0937500
        k(   21) = (   0.1250000   0.5051815   0.0000000), wk =   0.0937500
        k(   22) = (   0.1250000   0.5773503   0.0000000), wk =   0.0468750
        k(   23) = (   0.1875000   0.3247595   0.0000000), wk =   0.0468750
        k(   24) = (   0.1875000   0.3969283   0.0000000), wk =   0.0937500
        k(   25) = (   0.1875000   0.4690971   0.0000000), wk =   0.0937500
        k(   26) = (   0.1875000   0.5412659   0.0000000), wk =   0.0937500
        k(   27) = (   0.2500000   0.4330127   0.0000000), wk =   0.0468750
        k(   28) = (   0.2500000   0.5051815   0.0000000), wk =   0.0937500
        k(   29) = (   0.2500000   0.5773503   0.0000000), wk =   0.0468750
        k(   30) = (   0.3125000   0.5412659   0.0000000), wk =   0.0468750

     Dense  grid:   853823 G-vectors     FFT dimensions: (  50,  50, 768)

     Smooth grid:   302525 G-vectors     FFT dimensions: (  36,  36, 540)

     Estimated max dynamical RAM per process >     171.88 MB

     Estimated total dynamical RAM >       4.03 GB

     Initial potential from superposition of free atoms

     starting charge      91.9979, renormalised to      92.0000

     negative rho (up, down):  1.763E-04 0.000E+00


     %%%%%%%%%%%%%%%%%%%%%%%%%%%%%%%%%%%%%%%%%%%%%%%%%%%%%%%%%%%%%%%%%%%%%%%%
     %                                                                      %
     % You are using vdW-DF, which was implemented by the Thonhauser group. %
     % Please cite the following two papers that made this development      %
     % possible and the two reviews that describe the various versions:     %
     %                                                                      %
     %   T. Thonhauser et al., PRL 115, 136402 (2015).                      %
     %   T. Thonhauser et al., PRB 76, 125112 (2007).                       %
     %   K. Berland et al., Rep. Prog. Phys. 78, 066501 (2015).             %
     %   D.C. Langreth et al., J. Phys.: Condens. Matter 21, 084203 (2009). %
     %                                                                      %
     % If you are calculating stress with vdW-DF, please also cite:         %
     %                                                                      %
     %   R. Sabatini et al., J. Phys.: Condens. Matter 24, 424209 (2012).   %
     %                                                                      %
     %%%%%%%%%%%%%%%%%%%%%%%%%%%%%%%%%%%%%%%%%%%%%%%%%%%%%%%%%%%%%%%%%%%%%%%%

     %%%%%%%%%%%%%%%%%%%%%%%%%%%%%%%%%%%%%%%%%%%%%%%%%%%%%%%%%%%%%%%%%%%%%%%%
     %                                                                      %
     %  vdW-DF NEWS:                                                        %
     %                                                                      %
     %  * vdW-DF3 is now available. DOI: 10.1021/acs.jctc.0c00471           %
     %    use with input_dft = 'vdW-DF3-opt1' or 'vdW-DF3-opt2'             %
     %                                                                      %
     %  * Unscreened and range-separated hybrid vdW-DF-cx functionals       %
     %    DOI: 10.1063/1.4986522 and 10.1088/1361-648X/ac2ad2               %
     %    use with input_dft = 'vdW-DF-cx0'    and 'vdW-DF-ahcx'            %
     %  * Unscreened and range-separated hybrid vdW-DF2-b86r functionals    %
     %    DOI: 10.1063/1.4986522 and DOI: 10.1103/PhysRevX.12.041003        %
     %    use with input_dft = 'vdW-DF2-br0' and 'vdW-DF2-ahbr'             %
     %                                                                      %
     %%%%%%%%%%%%%%%%%%%%%%%%%%%%%%%%%%%%%%%%%%%%%%%%%%%%%%%%%%%%%%%%%%%%%%%%


     Starting wfcs are   56 randomized atomic wfcs
     Checking if some PAW data can be deallocated... 

     total cpu time spent up to now is       12.1 secs

     per-process dynamical memory:    79.7 Mb

     Self-consistent Calculation

     iteration #  1     ecut=    80.00 Ry     beta= 0.30
     Davidson diagonalization with overlap
     ethr =  1.00E-02,  avg # of iterations =  4.5

     Threshold (ethr) on eigenvalues was too large:
     Diagonalizing with lowered threshold

     Davidson diagonalization with overlap
     ethr =  4.49E-04,  avg # of iterations =  2.6

     negative rho (up, down):  4.447E-05 0.000E+00

     total cpu time spent up to now is       50.3 secs

     total energy              =   -2326.96124469 Ry
     estimated scf accuracy    <       0.46037448 Ry

     iteration #  2     ecut=    80.00 Ry     beta= 0.30
     Davidson diagonalization with overlap
     ethr =  5.00E-04,  avg # of iterations =  1.5

     negative rho (up, down):  2.327E-05 0.000E+00

     total cpu time spent up to now is       66.1 secs

     total energy              =   -2326.91751481 Ry
     estimated scf accuracy    <       0.23368275 Ry

     iteration #  3     ecut=    80.00 Ry     beta= 0.30
     Davidson diagonalization with overlap
     ethr =  2.54E-04,  avg # of iterations =  3.5

     negative rho (up, down):  1.099E-05 0.000E+00

     total cpu time spent up to now is       84.7 secs

     total energy              =   -2326.92318748 Ry
     estimated scf accuracy    <       0.03184698 Ry

     iteration #  4     ecut=    80.00 Ry     beta= 0.30
     Davidson diagonalization with overlap
     ethr =  3.46E-05,  avg # of iterations =  7.4

     negative rho (up, down):  5.157E-06 0.000E+00

     total cpu time spent up to now is      105.7 secs

     total energy              =   -2326.92350821 Ry
     estimated scf accuracy    <       0.00964494 Ry

     iteration #  5     ecut=    80.00 Ry     beta= 0.30
     Davidson diagonalization with overlap
     ethr =  1.05E-05,  avg # of iterations =  3.9

     negative rho (up, down):  8.871E-07 0.000E+00

     total cpu time spent up to now is      125.8 secs

     total energy              =   -2326.92254771 Ry
     estimated scf accuracy    <       0.00393310 Ry

     iteration #  6     ecut=    80.00 Ry     beta= 0.30
     Davidson diagonalization with overlap
     c_bands:  1 eigenvalues not converged
     c_bands:  1 eigenvalues not converged
     c_bands:  1 eigenvalues not converged
     ethr =  4.28E-06,  avg # of iterations =  7.6

     negative rho (up, down):  4.430E-07 0.000E+00

     total cpu time spent up to now is      148.2 secs

     total energy              =   -2326.92263000 Ry
     estimated scf accuracy    <       0.00135915 Ry

     iteration #  7     ecut=    80.00 Ry     beta= 0.30
     Davidson diagonalization with overlap
     ethr =  1.48E-06,  avg # of iterations =  2.8

     negative rho (up, down):  2.630E-07 0.000E+00

     total cpu time spent up to now is      167.0 secs

     total energy              =   -2326.92245520 Ry
     estimated scf accuracy    <       0.00121217 Ry

     iteration #  8     ecut=    80.00 Ry     beta= 0.30
     Davidson diagonalization with overlap
     ethr =  1.32E-06,  avg # of iterations =  1.8

     negative rho (up, down):  8.785E-08 0.000E+00

     total cpu time spent up to now is      184.8 secs

     total energy              =   -2326.92241275 Ry
     estimated scf accuracy    <       0.00083360 Ry

     iteration #  9     ecut=    80.00 Ry     beta= 0.30
     Davidson diagonalization with overlap
     ethr =  9.06E-07,  avg # of iterations =  2.8

     negative rho (up, down):  1.310E-03 0.000E+00

     total cpu time spent up to now is      202.8 secs

     total energy              =   -2326.92238067 Ry
     estimated scf accuracy    <       0.00066539 Ry

     iteration # 10     ecut=    80.00 Ry     beta= 0.30
     Davidson diagonalization with overlap
     ethr =  7.23E-07,  avg # of iterations =  7.2

     negative rho (up, down):  2.810E-03 0.000E+00

     total cpu time spent up to now is      221.5 secs

     total energy              =   -2326.92238956 Ry
     estimated scf accuracy    <       0.00052255 Ry

     iteration # 11     ecut=    80.00 Ry     beta= 0.30
     Davidson diagonalization with overlap
     ethr =  5.68E-07,  avg # of iterations =  4.9

     negative rho (up, down):  7.513E-03 0.000E+00

     total cpu time spent up to now is      239.3 secs

     total energy              =   -2326.92225010 Ry
     estimated scf accuracy    <       0.00040088 Ry

     iteration # 12     ecut=    80.00 Ry     beta= 0.30
     Davidson diagonalization with overlap
     c_bands:  1 eigenvalues not converged
     ethr =  4.36E-07,  avg # of iterations =  8.1

     negative rho (up, down):  6.224E-03 0.000E+00

     total cpu time spent up to now is      259.2 secs

     total energy              =   -2326.92227303 Ry
     estimated scf accuracy    <       0.00020197 Ry

     iteration # 13     ecut=    80.00 Ry     beta= 0.30
     Davidson diagonalization with overlap
     ethr =  2.20E-07,  avg # of iterations =  1.1

     negative rho (up, down):  3.237E-03 0.000E+00

     total cpu time spent up to now is      276.0 secs

     total energy              =   -2326.92222612 Ry
     estimated scf accuracy    <       0.00014571 Ry

     iteration # 14     ecut=    80.00 Ry     beta= 0.30
     Davidson diagonalization with overlap
     ethr =  1.58E-07,  avg # of iterations =  2.0

     negative rho (up, down):  2.644E-03 0.000E+00

     total cpu time spent up to now is      294.3 secs

     total energy              =   -2326.92224563 Ry
     estimated scf accuracy    <       0.00006698 Ry

     iteration # 15     ecut=    80.00 Ry     beta= 0.30
     Davidson diagonalization with overlap
     ethr =  7.28E-08,  avg # of iterations =  2.4

     negative rho (up, down):  1.205E-03 0.000E+00

     total cpu time spent up to now is      311.4 secs

     total energy              =   -2326.92228516 Ry
     estimated scf accuracy    <       0.00005682 Ry

     iteration # 16     ecut=    80.00 Ry     beta= 0.30
     Davidson diagonalization with overlap
     ethr =  6.18E-08,  avg # of iterations =  6.5

     negative rho (up, down):  1.319E-03 0.000E+00

     total cpu time spent up to now is      332.3 secs

     total energy              =   -2326.92229101 Ry
     estimated scf accuracy    <       0.00002384 Ry

     iteration # 17     ecut=    80.00 Ry     beta= 0.30
     Davidson diagonalization with overlap
     ethr =  2.59E-08,  avg # of iterations =  1.7

     negative rho (up, down):  9.688E-04 0.000E+00

     total cpu time spent up to now is      349.6 secs

     total energy              =   -2326.92230215 Ry
     estimated scf accuracy    <       0.00001054 Ry

     iteration # 18     ecut=    80.00 Ry     beta= 0.30
     Davidson diagonalization with overlap
     ethr =  1.15E-08,  avg # of iterations =  3.5

     negative rho (up, down):  2.260E-04 0.000E+00

     total cpu time spent up to now is      368.2 secs

     total energy              =   -2326.92230462 Ry
     estimated scf accuracy    <       0.00000470 Ry

     iteration # 19     ecut=    80.00 Ry     beta= 0.30
     Davidson diagonalization with overlap
     ethr =  5.11E-09,  avg # of iterations =  3.1

     negative rho (up, down):  1.806E-04 0.000E+00

     total cpu time spent up to now is      389.2 secs

     total energy              =   -2326.92230787 Ry
     estimated scf accuracy    <       0.00000132 Ry

     iteration # 20     ecut=    80.00 Ry     beta= 0.30
     Davidson diagonalization with overlap
     ethr =  1.44E-09,  avg # of iterations =  2.3

     negative rho (up, down):  1.985E-04 0.000E+00

     total cpu time spent up to now is      409.7 secs

     total energy              =   -2326.92230793 Ry
     estimated scf accuracy    <       0.00000030 Ry

     iteration # 21     ecut=    80.00 Ry     beta= 0.30
     Davidson diagonalization with overlap
     ethr =  3.21E-10,  avg # of iterations =  2.0

     negative rho (up, down):  2.000E-04 0.000E+00

     total cpu time spent up to now is      428.0 secs

     total energy              =   -2326.92230761 Ry
     estimated scf accuracy    <       0.00000014 Ry

     iteration # 22     ecut=    80.00 Ry     beta= 0.30
     Davidson diagonalization with overlap
     ethr =  1.48E-10,  avg # of iterations =  2.6

     negative rho (up, down):  2.115E-04 0.000E+00

     total cpu time spent up to now is      447.6 secs

     total energy              =   -2326.92230755 Ry
     estimated scf accuracy    <       0.00000003 Ry

     iteration # 23     ecut=    80.00 Ry     beta= 0.30
     Davidson diagonalization with overlap
     ethr =  2.99E-11,  avg # of iterations =  2.3

     negative rho (up, down):  2.079E-04 0.000E+00

     total cpu time spent up to now is      465.7 secs

     End of self-consistent calculation

          k = 0.0000 0.0000 0.0000 ( 37787 PWs)   bands (ev):

   -61.8971 -61.8962 -48.2924 -48.2924 -48.2918 -48.2918 -48.2908 -48.2908
   -48.2904 -48.2904 -48.2470 -48.2470 -48.2463 -48.2463 -48.2454 -48.2454
   -48.2449 -48.2449 -48.2283 -48.2275 -48.2268 -48.2262 -36.0156 -36.0145
   -35.9002 -35.9002 -35.8989 -35.8989 -15.2950 -15.2915 -14.4768 -14.4753
    -6.4382  -6.4350  -3.3617  -3.3616  -3.3555  -3.3555  -3.3421  -3.3328
    -1.5967  -1.5856  -1.0653  -1.0653  -1.0624  -1.0624   0.2282   0.2282
     0.2310   0.2310   2.7904   2.9467   2.9467   2.9488   2.9488

          k = 0.0000 0.0722 0.0000 ( 37755 PWs)   bands (ev):

   -61.8962 -61.8952 -48.2924 -48.2923 -48.2918 -48.2916 -48.2908 -48.2907
   -48.2904 -48.2902 -48.2470 -48.2470 -48.2463 -48.2463 -48.2455 -48.2454
   -48.2450 -48.2449 -48.2282 -48.2274 -48.2267 -48.2261 -36.0133 -36.0123
   -35.9108 -35.9095 -35.9027 -35.9013 -15.2382 -15.2348 -14.4473 -14.4457
    -6.3605  -6.3572  -3.8347  -3.8298  -3.3297  -3.3235  -2.9366  -2.9301
    -1.6336  -1.6249  -1.2552  -1.2521  -1.2123  -1.2092   0.1190   0.1234
     0.3412   0.3437   2.5962   2.6332   2.8981   2.9001   2.9257

          k = 0.0000 0.1443 0.0000 ( 37697 PWs)   bands (ev):

   -61.8934 -61.8925 -48.2924 -48.2918 -48.2917 -48.2911 -48.2908 -48.2904
   -48.2901 -48.2896 -48.2472 -48.2471 -48.2465 -48.2463 -48.2457 -48.2455
   -48.2451 -48.2450 -48.2280 -48.2272 -48.2264 -48.2259 -36.0070 -36.0059
   -35.9410 -35.9396 -35.9096 -35.9083 -15.0719 -15.0685 -14.3611 -14.3594
    -6.1352  -6.1320  -4.3202  -4.3154  -3.2543  -3.2482  -2.7169  -2.7114
    -2.0787  -2.0757  -1.4998  -1.4964  -1.4601  -1.4535  -0.0021   0.0059
     0.5317   0.5336   2.0109   2.0431   2.7983   2.8002   3.1769

          k = 0.0000 0.2165 0.0000 ( 37653 PWs)   bands (ev):

   -61.8893 -61.8884 -48.2924 -48.2918 -48.2909 -48.2908 -48.2904 -48.2903
   -48.2893 -48.2889 -48.2475 -48.2472 -48.2467 -48.2464 -48.2460 -48.2456
   -48.2453 -48.2450 -48.2276 -48.2268 -48.2260 -48.2255 -35.9977 -35.9967
   -35.9854 -35.9841 -35.9200 -35.9186 -14.8089 -14.8056 -14.2248 -14.2228
    -5.7945  -5.7913  -4.7494  -4.7447  -3.2587  -3.2556  -3.2027  -3.1967
    -2.4378  -2.4330  -1.7235  -1.7197  -1.5597  -1.5554  -0.0341  -0.0249
     0.6382   0.6394   1.6477   1.6845   2.7329   2.7346   3.5506

          k = 0.0000 0.2887 0.0000 ( 37721 PWs)   bands (ev):

   -61.8844 -61.8835 -48.2924 -48.2918 -48.2908 -48.2903 -48.2900 -48.2894
   -48.2884 -48.2880 -48.2479 -48.2473 -48.2469 -48.2465 -48.2464 -48.2458
   -48.2455 -48.2451 -48.2271 -48.2263 -48.2256 -48.2250 -36.0385 -36.0371
   -35.9858 -35.9848 -35.9322 -35.9308 -14.4757 -14.4725 -14.0469 -14.0447
    -5.4830  -5.4794  -4.9892  -4.9851  -4.2806  -4.2772  -3.2571  -3.2514
    -2.6224  -2.6194  -1.8114  -1.8093  -1.7670  -1.7630   0.0474   0.0563
     0.6432   0.6442   1.7514   1.7938   2.7341   2.7359   4.0297

          k = 0.0000 0.3608 0.0000 ( 37749 PWs)   bands (ev):

   -61.8796 -61.8787 -48.2924 -48.2917 -48.2908 -48.2902 -48.2891 -48.2885
   -48.2875 -48.2871 -48.2483 -48.2475 -48.2471 -48.2468 -48.2466 -48.2459
   -48.2456 -48.2452 -48.2267 -48.2259 -48.2251 -48.2246 -36.0904 -36.0890
   -35.9745 -35.9735 -35.9443 -35.9430 -14.1274 -14.1242 -13.8275 -13.8250
    -5.5999  -5.5956  -5.2380  -5.2348  -4.7250  -4.7218  -3.4056  -3.4002
    -2.9817  -2.9802  -2.0763  -2.0749  -1.6618  -1.6578   0.3080   0.3150
     0.6201   0.6213   2.1697   2.2134   2.7706   2.7727   4.5867

          k = 0.0000 0.4330 0.0000 ( 37785 PWs)   bands (ev):

   -61.8755 -61.8746 -48.2924 -48.2916 -48.2909 -48.2902 -48.2883 -48.2878
   -48.2867 -48.2863 -48.2486 -48.2476 -48.2472 -48.2471 -48.2466 -48.2461
   -48.2458 -48.2452 -48.2263 -48.2255 -48.2248 -48.2242 -36.1342 -36.1327
   -35.9649 -35.9639 -35.9546 -35.9532 -13.8635 -13.8602 -13.5486 -13.5460
    -6.2003  -6.1964  -5.5778  -5.5746  -4.5352  -4.5326  -3.5648  -3.5595
    -3.2357  -3.2344  -2.2495  -2.2485  -1.5280  -1.5244   0.6346   0.6363
     0.6743   0.6788   2.6896   2.7264   2.8071   2.8094   5.0188

          k = 0.0000 0.5052 0.0000 ( 37822 PWs)   bands (ev):

   -61.8727 -61.8718 -48.2925 -48.2916 -48.2909 -48.2901 -48.2878 -48.2872
   -48.2862 -48.2858 -48.2489 -48.2476 -48.2474 -48.2473 -48.2467 -48.2461
   -48.2459 -48.2453 -48.2260 -48.2252 -48.2245 -48.2239 -36.1632 -36.1618
   -35.9615 -35.9601 -35.9584 -35.9574 -13.7184 -13.7148 -13.2867 -13.2842
    -6.7578  -6.7540  -5.5991  -5.5966  -4.7023  -4.6999  -3.6769  -3.6716
    -3.1155  -3.1138  -2.3775  -2.3768  -1.4408  -1.4375   0.6837   0.6859
     1.0169   1.0191   2.8297   2.8322   3.1461   3.1672   4.6551

          k = 0.0000-0.5774 0.0000 ( 37832 PWs)   bands (ev):

   -61.8717 -61.8708 -48.2925 -48.2916 -48.2909 -48.2901 -48.2877 -48.2871
   -48.2861 -48.2856 -48.2490 -48.2477 -48.2475 -48.2473 -48.2467 -48.2461
   -48.2459 -48.2453 -48.2259 -48.2251 -48.2244 -48.2238 -36.1734 -36.1719
   -35.9639 -35.9625 -35.9561 -35.9551 -13.6709 -13.6672 -13.1801 -13.1776
    -6.9631  -6.9592  -5.5695  -5.5675  -4.8451  -4.8424  -3.7165  -3.7113
    -2.9867  -2.9850  -2.4459  -2.4453  -1.4131  -1.4100   0.7112   0.7136
     1.1645   1.1653   2.8369   2.8395   3.3737   3.3817   4.3401

          k = 0.0625 0.1083 0.0000 ( 37709 PWs)   bands (ev):

   -61.8943 -61.8934 -48.2924 -48.2919 -48.2918 -48.2913 -48.2908 -48.2904
   -48.2903 -48.2899 -48.2472 -48.2470 -48.2464 -48.2463 -48.2456 -48.2455
   -48.2450 -48.2450 -48.2281 -48.2272 -48.2265 -48.2259 -36.0090 -36.0080
   -35.9309 -35.9296 -35.9077 -35.9063 -15.1266 -15.1232 -14.3895 -14.3878
    -6.2085  -6.2053  -4.1913  -4.1865  -3.2832  -3.2771  -2.7377  -2.7314
    -1.8781  -1.8753  -1.5001  -1.4966  -1.3842  -1.3784   0.0589   0.0661
     0.4315   0.4334   2.2368   2.2703   2.7517   2.7563   3.1028

          k = 0.0625 0.1804 0.0000 ( 37703 PWs)   bands (ev):

   -61.8909 -61.8900 -48.2923 -48.2918 -48.2913 -48.2907 -48.2907 -48.2903
   -48.2897 -48.2892 -48.2474 -48.2471 -48.2466 -48.2464 -48.2459 -48.2456
   -48.2452 -48.2450 -48.2277 -48.2269 -48.2262 -48.2256 -36.0011 -36.0000
   -35.9675 -35.9662 -35.9171 -35.9158 -14.9115 -14.9082 -14.2784 -14.2765
    -5.9206  -5.9173  -4.6048  -4.6001  -3.2775  -3.2717  -2.8124  -2.8092
    -2.4549  -2.4519  -1.7550  -1.7514  -1.4161  -1.4105   0.0574   0.0658
     0.4315   0.4335   1.9177   1.9525   2.5785   2.5825   3.4133

          k = 0.0625 0.2526 0.0000 ( 37702 PWs)   bands (ev):

   -61.8864 -61.8855 -48.2923 -48.2917 -48.2907 -48.2904 -48.2903 -48.2898
   -48.2888 -48.2884 -48.2478 -48.2473 -48.2468 -48.2465 -48.2462 -48.2457
   -48.2454 -48.2451 -48.2273 -48.2265 -48.2258 -48.2252 -36.0152 -36.0139
   -35.9904 -35.9894 -35.9295 -35.9282 -14.6114 -14.6082 -14.1223 -14.1202
    -5.5530  -5.5497  -4.9489  -4.9443  -3.8364  -3.8327  -3.2233  -3.2185
    -2.6009  -2.5981  -1.9648  -1.9620  -1.4460  -1.4427  -0.0059   0.0013
     0.5099   0.5143   1.8112   1.8451   2.5467   2.5558   3.8384

          k = 0.0625 0.3248 0.0000 ( 37734 PWs)   bands (ev):

   -61.8815 -61.8806 -48.2923 -48.2916 -48.2907 -48.2902 -48.2895 -48.2890
   -48.2879 -48.2875 -48.2481 -48.2474 -48.2470 -48.2466 -48.2466 -48.2459
   -48.2456 -48.2452 -48.2269 -48.2260 -48.2253 -48.2248 -36.0662 -36.0648
   -35.9792 -35.9781 -35.9429 -35.9415 -14.2630 -14.2598 -13.9288 -13.9264
    -5.4460  -5.4418  -4.9250  -4.9218  -4.7807  -4.7770  -3.4627  -3.4582
    -2.7261  -2.7242  -2.2796  -2.2773  -1.4349  -1.4323   0.0454   0.0514
     0.6592   0.6624   1.9499   1.9802   2.6356   2.6518   4.3609

          k = 0.0625 0.3969 0.0000 ( 37770 PWs)   bands (ev):

   -61.8770 -61.8761 -48.2923 -48.2915 -48.2907 -48.2901 -48.2887 -48.2881
   -48.2871 -48.2867 -48.2485 -48.2475 -48.2471 -48.2470 -48.2466 -48.2460
   -48.2457 -48.2453 -48.2264 -48.2256 -48.2249 -48.2243 -36.1129 -36.1115
   -35.9687 -35.9677 -35.9552 -35.9538 -13.9469 -13.9436 -13.6846 -13.6820
    -5.8161  -5.8120  -5.4817  -5.4784  -4.5594  -4.5565  -3.7077  -3.7037
    -2.9899  -2.9883  -2.4977  -2.4956  -1.3667  -1.3642   0.2436   0.2472
     0.8167   0.8191   2.2441   2.2618   2.8034   2.8281   4.9213

          k = 0.0625 0.4691 0.0000 ( 37798 PWs)   bands (ev):

   -61.8736 -61.8727 -48.2923 -48.2915 -48.2907 -48.2900 -48.2881 -48.2875
   -48.2865 -48.2861 -48.2488 -48.2477 -48.2473 -48.2472 -48.2467 -48.2462
   -48.2458 -48.2453 -48.2261 -48.2253 -48.2246 -48.2240 -36.1484 -36.1470
   -35.9650 -35.9636 -35.9603 -35.9593 -13.7494 -13.7459 -13.3990 -13.3964
    -6.4710  -6.4672  -5.5881  -5.5852  -4.5538  -4.5514  -3.8016  -3.7971
    -3.1048  -3.1029  -2.6030  -2.6013  -1.3266  -1.3243   0.4866   0.4885
     0.9991   1.0010   2.4765   2.4813   3.0611   3.0851   5.0806

          k = 0.0625 0.5413 0.0000 ( 37791 PWs)   bands (ev):

   -61.8717 -61.8708 -48.2923 -48.2914 -48.2908 -48.2900 -48.2878 -48.2872
   -48.2862 -48.2858 -48.2489 -48.2477 -48.2474 -48.2472 -48.2467 -48.2462
   -48.2458 -48.2453 -48.2259 -48.2251 -48.2244 -48.2238 -36.1676 -36.1661
   -35.9699 -35.9685 -35.9561 -35.9552 -13.6562 -13.6526 -13.2038 -13.2013
    -6.8579  -6.8541  -5.5705  -5.5683  -4.7637  -4.7611  -3.8191  -3.8144
    -2.9916  -2.9897  -2.6753  -2.6739  -1.3277  -1.3255   0.6669   0.6691
     1.1292   1.1302   2.5755   2.5777   3.3117   3.3228   4.6417

          k = 0.1250 0.2165 0.0000 ( 37731 PWs)   bands (ev):

   -61.8871 -61.8862 -48.2923 -48.2917 -48.2907 -48.2906 -48.2902 -48.2900
   -48.2890 -48.2886 -48.2477 -48.2472 -48.2467 -48.2465 -48.2462 -48.2457
   -48.2453 -48.2451 -48.2274 -48.2266 -48.2258 -48.2253 -36.0054 -36.0040
   -35.9923 -35.9912 -35.9301 -35.9287 -14.6579 -14.6547 -14.1482 -14.1461
    -5.5837  -5.5805  -4.9166  -4.9118  -3.6948  -3.6903  -3.0105  -3.0078
    -2.8647  -2.8605  -1.9330  -1.9297  -1.3255  -1.3208   0.0507   0.0541
     0.3084   0.3174   2.1381   2.1788   2.1841   2.1886   3.7777

          k = 0.1250 0.2887 0.0000 ( 37723 PWs)   bands (ev):

   -61.8826 -61.8817 -48.2921 -48.2915 -48.2906 -48.2901 -48.2899 -48.2893
   -48.2883 -48.2878 -48.2481 -48.2473 -48.2469 -48.2466 -48.2465 -48.2458
   -48.2455 -48.2453 -48.2270 -48.2261 -48.2254 -48.2249 -36.0489 -36.0475
   -35.9819 -35.9809 -35.9460 -35.9447 -14.3355 -14.3323 -13.9810 -13.9786
    -5.2699  -5.2659  -5.0808  -5.0771  -4.4627  -4.4589  -3.4626  -3.4594
    -2.9544  -2.9507  -2.2003  -2.1984  -1.1980  -1.1946  -0.1627  -0.1581
     0.6023   0.6092   1.8695   1.8761   2.4502   2.4923   4.2494

          k = 0.1250 0.3608 0.0000 ( 37761 PWs)   bands (ev):

   -61.8781 -61.8772 -48.2920 -48.2913 -48.2905 -48.2899 -48.2891 -48.2886
   -48.2876 -48.2871 -48.2484 -48.2475 -48.2470 -48.2469 -48.2467 -48.2460
   -48.2456 -48.2453 -48.2265 -48.2257 -48.2250 -48.2244 -36.0918 -36.0904
   -35.9721 -35.9710 -35.9618 -35.9605 -13.9954 -13.9922 -13.7801 -13.7774
    -5.4729  -5.4685  -5.2625  -5.2591  -4.6666  -4.6635  -3.8506  -3.8472
    -3.0536  -3.0506  -2.6303  -2.6288  -1.0664  -1.0641  -0.1271  -0.1232
     0.8866   0.8904   1.7878   1.7942   2.7616   2.8010   4.8017

          k = 0.1250 0.4330 0.0000 ( 37768 PWs)   bands (ev):

   -61.8743 -61.8734 -48.2920 -48.2912 -48.2904 -48.2897 -48.2885 -48.2879
   -48.2869 -48.2865 -48.2486 -48.2477 -48.2471 -48.2471 -48.2468 -48.2462
   -48.2457 -48.2454 -48.2262 -48.2254 -48.2247 -48.2241 -36.1279 -36.1264
   -35.9771 -35.9758 -35.9618 -35.9608 -13.7454 -13.7421 -13.5169 -13.5142
    -6.0625  -6.0587  -5.5216  -5.5181  -4.3958  -4.3932  -4.0778  -4.0742
    -3.1652  -3.1626  -2.9789  -2.9771  -1.0339  -1.0324   0.1172   0.1198
     1.0782   1.0800   1.8987   1.9034   3.0483   3.0764   5.2970

          k = 0.1250 0.5052 0.0000 ( 37794 PWs)   bands (ev):

   -61.8717 -61.8708 -48.2919 -48.2911 -48.2904 -48.2896 -48.2881 -48.2875
   -48.2865 -48.2861 -48.2488 -48.2479 -48.2473 -48.2472 -48.2468 -48.2464
   -48.2457 -48.2454 -48.2260 -48.2252 -48.2244 -48.2239 -36.1518 -36.1503
   -35.9862 -35.9848 -35.9562 -35.9552 -13.6135 -13.6100 -13.2680 -13.2653
    -6.5657  -6.5620  -5.5548  -5.5519  -4.5684  -4.5658  -4.0295  -4.0256
    -3.2465  -3.2442  -3.0428  -3.0409  -1.0910  -1.0899   0.4558   0.4575
     1.1279   1.1291   2.0667   2.0695   3.2443   3.2578   5.2203

          k = 0.1250 0.5774 0.0000 ( 37780 PWs)   bands (ev):

   -61.8708 -61.8699 -48.2919 -48.2910 -48.2904 -48.2896 -48.2880 -48.2874
   -48.2864 -48.2860 -48.2489 -48.2479 -48.2474 -48.2472 -48.2468 -48.2464
   -48.2457 -48.2454 -48.2259 -48.2251 -48.2243 -48.2238 -36.1601 -36.1586
   -35.9894 -35.9881 -35.9541 -35.9531 -13.5699 -13.5663 -13.1686 -13.1660
    -6.7493  -6.7455  -5.5468  -5.5442  -4.6831  -4.6803  -4.0259  -4.0219
    -3.2757  -3.2735  -2.9974  -2.9954  -1.1300  -1.1290   0.6576   0.6594
     1.0795   1.0803   2.1504   2.1522   3.3131   3.3193   5.0080

          k = 0.1875 0.3248 0.0000 ( 37725 PWs)   bands (ev):

   -61.8785 -61.8776 -48.2919 -48.2912 -48.2903 -48.2897 -48.2893 -48.2887
   -48.2877 -48.2873 -48.2483 -48.2475 -48.2470 -48.2468 -48.2468 -48.2459
   -48.2456 -48.2454 -48.2266 -48.2258 -48.2250 -48.2245 -36.0823 -36.0809
   -35.9742 -35.9731 -35.9654 -35.9641 -14.0107 -14.0076 -13.8147 -13.8121
    -5.3406  -5.3361  -5.0939  -5.0901  -4.7556  -4.7526  -3.8536  -3.8510
    -3.3345  -3.3305  -2.5109  -2.5097  -0.8984  -0.8955  -0.3068  -0.3031
     0.8843   0.8892   1.6030   1.6055   2.7481   2.7919   4.7559

          k = 0.1875 0.3969 0.0000 ( 37753 PWs)   bands (ev):

   -61.8747 -61.8738 -48.2916 -48.2909 -48.2901 -48.2894 -48.2889 -48.2883
   -48.2873 -48.2869 -48.2486 -48.2476 -48.2472 -48.2471 -48.2468 -48.2461
   -48.2457 -48.2454 -48.2262 -48.2254 -48.2247 -48.2241 -36.1111 -36.1096
   -35.9894 -35.9880 -35.9627 -35.9617 -13.7078 -13.7046 -13.6173 -13.6145
    -5.6936  -5.6898  -5.4443  -5.4403  -4.3549  -4.3521  -4.2055  -4.2028
    -3.6602  -3.6567  -2.9097  -2.9084  -0.6916  -0.6897  -0.2382  -0.2356
     1.1071   1.1096   1.5218   1.5252   3.0490   3.0797   5.3075

          k = 0.1875 0.4691 0.0000 ( 37759 PWs)   bands (ev):

   -61.8717 -61.8708 -48.2915 -48.2906 -48.2899 -48.2891 -48.2885 -48.2880
   -48.2870 -48.2865 -48.2487 -48.2479 -48.2473 -48.2472 -48.2468 -48.2464
   -48.2458 -48.2454 -48.2260 -48.2252 -48.2244 -48.2239 -36.1319 -36.1305
   -36.0065 -36.0051 -35.9562 -35.9552 -13.5474 -13.5440 -13.3550 -13.3522
    -6.1779  -6.1742  -5.5115  -5.5080  -4.4275  -4.4245  -4.1188  -4.1159
    -3.8857  -3.8829  -3.1797  -3.1781  -0.7427  -0.7419   0.1043   0.1059
     1.1480   1.1494   1.6728   1.6763   3.2233   3.2373   5.6194

          k = 0.1875 0.5413 0.0000 ( 37793 PWs)   bands (ev):

   -61.8702 -61.8693 -48.2913 -48.2905 -48.2898 -48.2890 -48.2884 -48.2878
   -48.2868 -48.2864 -48.2487 -48.2480 -48.2473 -48.2472 -48.2468 -48.2466
   -48.2459 -48.2455 -48.2258 -48.2250 -48.2243 -48.2237 -36.1429 -36.1414
   -36.0161 -36.0147 -35.9526 -35.9516 -13.4698 -13.4663 -13.1855 -13.1827
    -6.4552  -6.4515  -5.5401  -5.5368  -4.5210  -4.5179  -4.1615  -4.1585
    -3.9604  -3.9581  -3.2009  -3.1990  -0.8305  -0.8300   0.4715   0.4725
     1.0006   1.0019   1.8844   1.8866   3.2243   3.2294   5.5997

          k = 0.2500 0.4330 0.0000 ( 37711 PWs)   bands (ev):

   -61.8717 -61.8708 -48.2912 -48.2903 -48.2896 -48.2889 -48.2888 -48.2882
   -48.2872 -48.2867 -48.2486 -48.2478 -48.2474 -48.2471 -48.2468 -48.2463
   -48.2460 -48.2454 -48.2259 -48.2252 -48.2244 -48.2239 -36.1215 -36.1201
   -36.0171 -36.0157 -35.9562 -35.9552 -13.4855 -13.4823 -13.4254 -13.4224
    -5.9573  -5.9536  -5.4800  -5.4761  -4.4090  -4.4065  -4.2490  -4.2457
    -4.0444  -4.0415  -3.2754  -3.2741  -0.3323  -0.3307  -0.3110  -0.3098
     1.1433   1.1447   1.5477   1.5514   3.2218   3.2357   5.7600

          k = 0.2500 0.5052 0.0000 ( 37776 PWs)   bands (ev):

   -61.8698 -61.8689 -48.2908 -48.2900 -48.2893 -48.2888 -48.2885 -48.2882
   -48.2872 -48.2868 -48.2486 -48.2480 -48.2475 -48.2471 -48.2468 -48.2465
   -48.2461 -48.2454 -48.2258 -48.2250 -48.2242 -48.2237 -36.1241 -36.1226
   -36.0402 -36.0387 -35.9518 -35.9508 -13.3758 -13.3725 -13.2384 -13.2354
    -6.1051  -6.1014  -5.5318  -5.5279  -4.6684  -4.6649  -4.3862  -4.3840
    -3.9705  -3.9683  -3.5133  -3.5117  -0.4343  -0.4337   0.0616   0.0623
     0.9638   0.9652   1.8394   1.8430   3.1554   3.1590   5.7943

          k = 0.2500 0.5774 0.0000 ( 37791 PWs)   bands (ev):

   -61.8691 -61.8682 -48.2907 -48.2898 -48.2891 -48.2888 -48.2883 -48.2882
   -48.2872 -48.2868 -48.2486 -48.2482 -48.2476 -48.2471 -48.2468 -48.2467
   -48.2461 -48.2454 -48.2257 -48.2249 -48.2242 -48.2237 -36.1235 -36.1221
   -36.0497 -36.0483 -35.9502 -35.9492 -13.3372 -13.3338 -13.1685 -13.1655
    -6.1480  -6.1444  -5.5619  -5.5582  -4.8214  -4.8178  -4.2065  -4.2043
    -4.1868  -4.1848  -3.5141  -3.5122  -0.4850  -0.4847   0.3204   0.3204
     0.7566   0.7585   2.0594   2.0611   3.0189   3.0212   5.6809

          k = 0.3125 0.5413 0.0000 ( 37789 PWs)   bands (ev):

   -61.8687 -61.8678 -48.2902 -48.2894 -48.2891 -48.2886 -48.2886 -48.2879
   -48.2876 -48.2872 -48.2485 -48.2482 -48.2477 -48.2469 -48.2468 -48.2467
   -48.2463 -48.2454 -48.2257 -48.2249 -48.2241 -48.2236 -36.1060 -36.1046
   -36.0722 -36.0708 -35.9494 -35.9484 -13.2578 -13.2544 -13.1959 -13.1929
    -5.8437  -5.8402  -5.5717  -5.5677  -5.2610  -5.2576  -4.2195  -4.2176
    -3.8815  -3.8792  -3.8789  -3.8778  -0.1476  -0.1469   0.0298   0.0301
     0.6569   0.6591   2.2667   2.2697   2.8319   2.8339   5.6144

     the Fermi energy is    -0.2967 ev

!    total energy              =   -2326.92230764 Ry
     total all-electron energy =    -35628.670136 Ry
     estimated scf accuracy    <          5.1E-09 Ry
     smearing contrib. (-TS)   =       0.00090023 Ry
     internal energy E=F+TS    =   -2326.92320787 Ry

     The total energy is F=E-TS. E is the sum of the following terms:
     one-electron contribution =  -20826.99667705 Ry
     hartree contribution      =   10401.72201630 Ry
     xc contribution           =    -152.42408993 Ry
     ewald contribution        =    9261.29000730 Ry
     one-center paw contrib.   =   -1010.51446450 Ry

     convergence has been achieved in  23 iterations

     Writing all to output data dir ./tmp/cleave_022/mose2_cleave_022.save/ :
     XML data file, charge density, pseudopotentials, collected wavefunctions

     init_run     :     11.59s CPU     11.95s WALL (       1 calls)
     electrons    :    439.71s CPU    453.68s WALL (       1 calls)

     Called by init_run:
     wfcinit      :      5.36s CPU      5.48s WALL (       1 calls)
     potinit      :      5.54s CPU      5.69s WALL (       1 calls)
     hinit0       :      0.05s CPU      0.06s WALL (       1 calls)

     Called by electrons:
     c_bands      :    364.97s CPU    373.80s WALL (      24 calls)
     sum_band     :     48.80s CPU     51.41s WALL (      24 calls)
     v_of_rho     :     14.76s CPU     15.68s WALL (      24 calls)
     newd         :      9.53s CPU     11.18s WALL (      24 calls)
     PAW_pot      :      1.63s CPU      1.68s WALL (      24 calls)
     mix_rho      :      5.72s CPU      5.83s WALL (      24 calls)
     vdW_kernel   :      5.08s CPU      5.21s WALL (       1 calls)

     Called by c_bands:
     init_us_2    :      1.75s CPU      1.77s WALL (    1470 calls)
     cegterg      :    352.95s CPU    361.38s WALL (     720 calls)

     Called by *egterg:
     cdiaghg      :      8.51s CPU      8.52s WALL (    3338 calls)
     h_psi        :    133.90s CPU    136.11s WALL (    3398 calls)
     s_psi        :     15.25s CPU     15.27s WALL (    3398 calls)
     g_psi        :      0.16s CPU      0.16s WALL (    2648 calls)

     Called by h_psi:
     h_psi:calbec :     46.06s CPU     47.37s WALL (    3398 calls)
     vloc_psi     :     71.99s CPU     72.86s WALL (    3398 calls)
                                        0.00s GPU  (    3398 calls)
     add_vuspsi   :     15.62s CPU     15.64s WALL (    3398 calls)

     General routines
     calbec       :     65.88s CPU     67.75s WALL (    4118 calls)
     fft          :      7.55s CPU      7.80s WALL (    1511 calls)
     ffts         :      2.28s CPU      2.31s WALL (    2754 calls)
     fftw         :     86.48s CPU     87.56s WALL (  217856 calls)
     interpolate  :      0.13s CPU      0.13s WALL (      24 calls)

     Parallel routines

     PWSCF        :   7m31.88s CPU   7m46.44s WALL


   This run was terminated on:  11:44:17  20Jun2026            

=------------------------------------------------------------------------------=
   JOB DONE.
=------------------------------------------------------------------------------=
Note: The following floating-point exceptions are signalling: IEEE_UNDERFLOW_FLAG IEEE_DENORMAL
Note: The following floating-point exceptions are signalling: IEEE_UNDERFLOW_FLAG IEEE_DENORMAL
Note: The following floating-point exceptions are signalling: IEEE_UNDERFLOW_FLAG IEEE_DENORMAL
Note: The following floating-point exceptions are signalling: IEEE_UNDERFLOW_FLAG IEEE_DENORMAL
Note: The following floating-point exceptions are signalling: IEEE_UNDERFLOW_FLAG IEEE_DENORMAL
Note: The following floating-point exceptions are signalling: IEEE_UNDERFLOW_FLAG IEEE_DENORMAL
Note: The following floating-point exceptions are signalling: IEEE_UNDERFLOW_FLAG IEEE_DENORMAL
Note: The following floating-point exceptions are signalling: IEEE_UNDERFLOW_FLAG IEEE_DENORMAL
Note: The following floating-point exceptions are signalling: IEEE_UNDERFLOW_FLAG IEEE_DENORMAL
Note: The following floating-point exceptions are signalling: IEEE_UNDERFLOW_FLAG IEEE_DENORMAL
Note: The following floating-point exceptions are signalling: IEEE_UNDERFLOW_FLAG IEEE_DENORMAL
Note: The following floating-point exceptions are signalling: IEEE_UNDERFLOW_FLAG IEEE_DENORMAL
Note: The following floating-point exceptions are signalling: IEEE_UNDERFLOW_FLAG IEEE_DENORMAL
Note: The following floating-point exceptions are signalling: IEEE_UNDERFLOW_FLAG IEEE_DENORMAL
Note: The following floating-point exceptions are signalling: IEEE_UNDERFLOW_FLAG IEEE_DENORMAL
Note: The following floating-point exceptions are signalling: IEEE_UNDERFLOW_FLAG IEEE_DENORMAL
Note: The following floating-point exceptions are signalling: IEEE_UNDERFLOW_FLAG IEEE_DENORMAL
Note: The following floating-point exceptions are signalling: IEEE_UNDERFLOW_FLAG IEEE_DENORMAL
Note: The following floating-point exceptions are signalling: IEEE_UNDERFLOW_FLAG IEEE_DENORMAL
Note: The following floating-point exceptions are signalling: IEEE_UNDERFLOW_FLAG IEEE_DENORMAL
Note: The following floating-point exceptions are signalling: IEEE_UNDERFLOW_FLAG IEEE_DENORMAL
Note: The following floating-point exceptions are signalling: IEEE_UNDERFLOW_FLAG IEEE_DENORMAL
Note: The following floating-point exceptions are signalling: IEEE_UNDERFLOW_FLAG IEEE_DENORMAL
Note: The following floating-point exceptions are signalling: IEEE_UNDERFLOW_FLAG IEEE_DENORMAL
