
     Program PWSCF v.7.5 starts on 20Jun2026 at 12: 7:37 

     This program is part of the open-source Quantum ESPRESSO suite
     for quantum simulation of materials; please cite
         "P. Giannozzi et al., J. Phys.:Condens. Matter 21 395502 (2009);
         "P. Giannozzi et al., J. Phys.:Condens. Matter 29 465901 (2017);
         "P. Giannozzi et al., J. Chem. Phys. 152 154105 (2020);
          URL http://www.quantum-espresso.org", 
     in publications or presentations arising from this work. More details at
     http://www.quantum-espresso.org/quote

     Parallel version (MPI), running on    24 processors

     MPI processes distributed on     1 nodes
     17255 MiB available memory on the printing compute node when the environment starts

     Waiting for input...
     Reading input from standard input

     Current dimensions of program PWSCF are:
     Max number of different atomic species (ntypx) = 10
     Max number of k-points (npk) =  40000
     Max angular momentum in pseudopotentials (lmaxx) =  4
     file Mo.pbe-spn-kjpaw_psl.1.0.0.UPF: wavefunction(s)  4S 4D renormalized
     file Se.pbe-dn-kjpaw_psl.1.0.0.UPF: wavefunction(s)  4S 4P 3D renormalized

     IMPORTANT: XC functional enforced from input :
     Exchange-correlation= VDW-DF2-B86R
                           (   1   4  26   0   2   0   0)
     Any further DFT definition will be discarded
     Please, verify this is what you really want


     R & G space division:  proc/nbgrp/npool/nimage =      24
     Subspace diagonalization in iterative solution of the eigenvalue problem:
     a serial algorithm will be used


     Parallelization info
     --------------------
     sticks:   dense  smooth     PW     G-vecs:    dense   smooth      PW
     Min          69      35     10                35537    12585    1924
     Max          70      36     11                35620    12648    1981
     Sum        1675     847    241               853823   302525   46513

     Using Slab Decomposition



     bravais-lattice index     =            4
     lattice parameter (alat)  =       6.1794  a.u.
     unit-cell volume          =    3124.5879 (a.u.)^3
     number of atoms/cell      =            6
     number of atomic types    =            2
     number of electrons       =        92.00
     number of Kohn-Sham states=           55
     kinetic-energy cutoff     =      80.0000  Ry
     charge density cutoff     =     640.0000  Ry
     scf convergence threshold =      1.0E-08
     mixing beta               =       0.3000
     number of iterations used =            8  local-TF  mixing
     Exchange-correlation= VDW-DF2-B86R
                           (   1   4  26   0   2   0   0)

     celldm(1)=   6.179404  celldm(2)=   0.000000  celldm(3)=  15.290520
     celldm(4)=   0.000000  celldm(5)=   0.000000  celldm(6)=   0.000000

     crystal axes: (cart. coord. in units of alat)
               a(1) = (   1.000000   0.000000   0.000000 )  
               a(2) = (  -0.500000   0.866025   0.000000 )  
               a(3) = (   0.000000   0.000000  15.290520 )  

     reciprocal axes: (cart. coord. in units 2 pi/alat)
               b(1) = (  1.000000  0.577350 -0.000000 )  
               b(2) = (  0.000000  1.154701  0.000000 )  
               b(3) = (  0.000000 -0.000000  0.065400 )  


     PseudoPot. # 1 for Mo read from file:
     ./pseudo/Mo.pbe-spn-kjpaw_psl.1.0.0.UPF
     MD5 check sum: 4396e0c640fcce5c25f020efccf1ab12
     Pseudo is Projector augmented-wave + core cor, Zval = 14.0
     Generated using &quot;atomic&quot; code by A. Dal Corso  v.6.3
     Shape of augmentation charge: PSQ
     Using radial grid of 1229 points,  6 beta functions with: 
                l(1) =   0
                l(2) =   0
                l(3) =   1
                l(4) =   1
                l(5) =   2
                l(6) =   2
     Q(r) pseudized with 0 coefficients 


     PseudoPot. # 2 for Se read from file:
     ./pseudo/Se.pbe-dn-kjpaw_psl.1.0.0.UPF
     MD5 check sum: ac240dd2bae32a30e0bf3a38df9c8785
     Pseudo is Projector augmented-wave + core cor, Zval = 16.0
     Generated using &quot;atomic&quot; code by A. Dal Corso  v.6.3
     Shape of augmentation charge: PSQ
     Using radial grid of 1211 points,  6 beta functions with: 
                l(1) =   0
                l(2) =   0
                l(3) =   1
                l(4) =   1
                l(5) =   2
                l(6) =   2
     Q(r) pseudized with 0 coefficients 


     atomic species   valence    mass     pseudopotential
     Mo               14.00    95.96000     Mo( 1.00)
     Se               16.00    78.96000     Se( 1.00)

      6 Sym. Ops. (no inversion) found



   Cartesian axes

     site n.     atom                  positions (alat units)
         1        Se     tau(   1) = (  -0.0000005   0.5773506   6.1238532  )
         2        Mo     tau(   2) = (   0.0000000   0.0000000   6.6502752  )
         3        Se     tau(   3) = (   0.5000005   0.2886748   7.1775994  )
         4        Se     tau(   4) = (  -0.0000005   0.5773506   9.7025535  )
         5        Mo     tau(   5) = (   0.5000005   0.2886748  10.2297401  )
         6        Se     tau(   6) = (   0.0000000   0.0000000  10.7568807  )

     number of k points=    30  Methfessel-Paxton smearing, width (Ry)=  0.0200
                       cart. coord. in units 2pi/alat
        k(    1) = (   0.0000000   0.0000000   0.0000000), wk =   0.0078125
        k(    2) = (   0.0000000   0.0721688   0.0000000), wk =   0.0468750
        k(    3) = (   0.0000000   0.1443376   0.0000000), wk =   0.0468750
        k(    4) = (   0.0000000   0.2165064   0.0000000), wk =   0.0468750
        k(    5) = (   0.0000000   0.2886751   0.0000000), wk =   0.0468750
        k(    6) = (   0.0000000   0.3608439   0.0000000), wk =   0.0468750
        k(    7) = (   0.0000000   0.4330127   0.0000000), wk =   0.0468750
        k(    8) = (   0.0000000   0.5051815   0.0000000), wk =   0.0468750
        k(    9) = (   0.0000000  -0.5773503   0.0000000), wk =   0.0234375
        k(   10) = (   0.0625000   0.1082532   0.0000000), wk =   0.0468750
        k(   11) = (   0.0625000   0.1804220   0.0000000), wk =   0.0937500
        k(   12) = (   0.0625000   0.2525907   0.0000000), wk =   0.0937500
        k(   13) = (   0.0625000   0.3247595   0.0000000), wk =   0.0937500
        k(   14) = (   0.0625000   0.3969283   0.0000000), wk =   0.0937500
        k(   15) = (   0.0625000   0.4690971   0.0000000), wk =   0.0937500
        k(   16) = (   0.0625000   0.5412659   0.0000000), wk =   0.0937500
        k(   17) = (   0.1250000   0.2165064   0.0000000), wk =   0.0468750
        k(   18) = (   0.1250000   0.2886751   0.0000000), wk =   0.0937500
        k(   19) = (   0.1250000   0.3608439   0.0000000), wk =   0.0937500
        k(   20) = (   0.1250000   0.4330127   0.0000000), wk =   0.0937500
        k(   21) = (   0.1250000   0.5051815   0.0000000), wk =   0.0937500
        k(   22) = (   0.1250000   0.5773503   0.0000000), wk =   0.0468750
        k(   23) = (   0.1875000   0.3247595   0.0000000), wk =   0.0468750
        k(   24) = (   0.1875000   0.3969283   0.0000000), wk =   0.0937500
        k(   25) = (   0.1875000   0.4690971   0.0000000), wk =   0.0937500
        k(   26) = (   0.1875000   0.5412659   0.0000000), wk =   0.0937500
        k(   27) = (   0.2500000   0.4330127   0.0000000), wk =   0.0468750
        k(   28) = (   0.2500000   0.5051815   0.0000000), wk =   0.0937500
        k(   29) = (   0.2500000   0.5773503   0.0000000), wk =   0.0468750
        k(   30) = (   0.3125000   0.5412659   0.0000000), wk =   0.0468750

     Dense  grid:   853823 G-vectors     FFT dimensions: (  50,  50, 768)

     Smooth grid:   302525 G-vectors     FFT dimensions: (  36,  36, 540)

     Estimated max dynamical RAM per process >     171.88 MB

     Estimated total dynamical RAM >       4.03 GB

     Initial potential from superposition of free atoms

     starting charge      91.9979, renormalised to      92.0000

     negative rho (up, down):  1.627E-04 0.000E+00


     %%%%%%%%%%%%%%%%%%%%%%%%%%%%%%%%%%%%%%%%%%%%%%%%%%%%%%%%%%%%%%%%%%%%%%%%
     %                                                                      %
     % You are using vdW-DF, which was implemented by the Thonhauser group. %
     % Please cite the following two papers that made this development      %
     % possible and the two reviews that describe the various versions:     %
     %                                                                      %
     %   T. Thonhauser et al., PRL 115, 136402 (2015).                      %
     %   T. Thonhauser et al., PRB 76, 125112 (2007).                       %
     %   K. Berland et al., Rep. Prog. Phys. 78, 066501 (2015).             %
     %   D.C. Langreth et al., J. Phys.: Condens. Matter 21, 084203 (2009). %
     %                                                                      %
     % If you are calculating stress with vdW-DF, please also cite:         %
     %                                                                      %
     %   R. Sabatini et al., J. Phys.: Condens. Matter 24, 424209 (2012).   %
     %                                                                      %
     %%%%%%%%%%%%%%%%%%%%%%%%%%%%%%%%%%%%%%%%%%%%%%%%%%%%%%%%%%%%%%%%%%%%%%%%

     %%%%%%%%%%%%%%%%%%%%%%%%%%%%%%%%%%%%%%%%%%%%%%%%%%%%%%%%%%%%%%%%%%%%%%%%
     %                                                                      %
     %  vdW-DF NEWS:                                                        %
     %                                                                      %
     %  * vdW-DF3 is now available. DOI: 10.1021/acs.jctc.0c00471           %
     %    use with input_dft = 'vdW-DF3-opt1' or 'vdW-DF3-opt2'             %
     %                                                                      %
     %  * Unscreened and range-separated hybrid vdW-DF-cx functionals       %
     %    DOI: 10.1063/1.4986522 and 10.1088/1361-648X/ac2ad2               %
     %    use with input_dft = 'vdW-DF-cx0'    and 'vdW-DF-ahcx'            %
     %  * Unscreened and range-separated hybrid vdW-DF2-b86r functionals    %
     %    DOI: 10.1063/1.4986522 and DOI: 10.1103/PhysRevX.12.041003        %
     %    use with input_dft = 'vdW-DF2-br0' and 'vdW-DF2-ahbr'             %
     %                                                                      %
     %%%%%%%%%%%%%%%%%%%%%%%%%%%%%%%%%%%%%%%%%%%%%%%%%%%%%%%%%%%%%%%%%%%%%%%%


     Starting wfcs are   56 randomized atomic wfcs
     Checking if some PAW data can be deallocated... 

     total cpu time spent up to now is       11.9 secs

     per-process dynamical memory:    79.7 Mb

     Self-consistent Calculation

     iteration #  1     ecut=    80.00 Ry     beta= 0.30
     Davidson diagonalization with overlap
     ethr =  1.00E-02,  avg # of iterations =  4.4

     Threshold (ethr) on eigenvalues was too large:
     Diagonalizing with lowered threshold

     Davidson diagonalization with overlap
     ethr =  4.49E-04,  avg # of iterations =  2.0

     negative rho (up, down):  5.127E-05 0.000E+00

     total cpu time spent up to now is       49.6 secs

     total energy              =   -2326.96314635 Ry
     estimated scf accuracy    <       0.46062275 Ry

     iteration #  2     ecut=    80.00 Ry     beta= 0.30
     Davidson diagonalization with overlap
     ethr =  5.01E-04,  avg # of iterations =  1.4

     negative rho (up, down):  2.500E-05 0.000E+00

     total cpu time spent up to now is       65.8 secs

     total energy              =   -2326.91606926 Ry
     estimated scf accuracy    <       0.24513663 Ry

     iteration #  3     ecut=    80.00 Ry     beta= 0.30
     Davidson diagonalization with overlap
     ethr =  2.66E-04,  avg # of iterations =  5.5

     negative rho (up, down):  7.246E-06 0.000E+00

     total cpu time spent up to now is       84.9 secs

     total energy              =   -2326.92302148 Ry
     estimated scf accuracy    <       0.03198902 Ry

     iteration #  4     ecut=    80.00 Ry     beta= 0.30
     Davidson diagonalization with overlap
     ethr =  3.48E-05,  avg # of iterations =  6.6

     negative rho (up, down):  2.949E-06 0.000E+00

     total cpu time spent up to now is      107.3 secs

     total energy              =   -2326.92315692 Ry
     estimated scf accuracy    <       0.01035971 Ry

     iteration #  5     ecut=    80.00 Ry     beta= 0.30
     Davidson diagonalization with overlap
     ethr =  1.13E-05,  avg # of iterations =  3.9

     negative rho (up, down):  5.785E-07 0.000E+00

     total cpu time spent up to now is      127.9 secs

     total energy              =   -2326.92229028 Ry
     estimated scf accuracy    <       0.00423412 Ry

     iteration #  6     ecut=    80.00 Ry     beta= 0.30
     Davidson diagonalization with overlap
     c_bands:  1 eigenvalues not converged
     c_bands:  1 eigenvalues not converged
     c_bands:  1 eigenvalues not converged
     ethr =  4.60E-06,  avg # of iterations =  6.9

     negative rho (up, down):  2.736E-07 0.000E+00

     total cpu time spent up to now is      150.2 secs

     total energy              =   -2326.92230782 Ry
     estimated scf accuracy    <       0.00140247 Ry

     iteration #  7     ecut=    80.00 Ry     beta= 0.30
     Davidson diagonalization with overlap
     ethr =  1.52E-06,  avg # of iterations =  3.5

     negative rho (up, down):  2.372E-07 0.000E+00

     total cpu time spent up to now is      168.4 secs

     total energy              =   -2326.92213438 Ry
     estimated scf accuracy    <       0.00119499 Ry

     iteration #  8     ecut=    80.00 Ry     beta= 0.30
     Davidson diagonalization with overlap
     ethr =  1.30E-06,  avg # of iterations =  2.0

     negative rho (up, down):  1.342E-07 0.000E+00

     total cpu time spent up to now is      186.2 secs

     total energy              =   -2326.92211910 Ry
     estimated scf accuracy    <       0.00079910 Ry

     iteration #  9     ecut=    80.00 Ry     beta= 0.30
     Davidson diagonalization with overlap
     ethr =  8.69E-07,  avg # of iterations =  3.1

     negative rho (up, down):  2.256E-03 0.000E+00

     total cpu time spent up to now is      203.8 secs

     total energy              =   -2326.92214720 Ry
     estimated scf accuracy    <       0.00063026 Ry

     iteration # 10     ecut=    80.00 Ry     beta= 0.30
     Davidson diagonalization with overlap
     ethr =  6.85E-07,  avg # of iterations =  4.7

     negative rho (up, down):  2.713E-03 0.000E+00

     total cpu time spent up to now is      222.9 secs

     total energy              =   -2326.92208206 Ry
     estimated scf accuracy    <       0.00052802 Ry

     iteration # 11     ecut=    80.00 Ry     beta= 0.30
     Davidson diagonalization with overlap
     ethr =  5.74E-07,  avg # of iterations =  1.7

     negative rho (up, down):  6.530E-03 0.000E+00

     total cpu time spent up to now is      239.9 secs

     total energy              =   -2326.92193757 Ry
     estimated scf accuracy    <       0.00039871 Ry

     iteration # 12     ecut=    80.00 Ry     beta= 0.30
     Davidson diagonalization with overlap
     ethr =  4.33E-07,  avg # of iterations =  5.4

     negative rho (up, down):  5.550E-03 0.000E+00

     total cpu time spent up to now is      258.9 secs

     total energy              =   -2326.92195172 Ry
     estimated scf accuracy    <       0.00024213 Ry

     iteration # 13     ecut=    80.00 Ry     beta= 0.30
     Davidson diagonalization with overlap
     ethr =  2.63E-07,  avg # of iterations =  5.9

     negative rho (up, down):  4.360E-03 0.000E+00

     total cpu time spent up to now is      277.5 secs

     total energy              =   -2326.92189317 Ry
     estimated scf accuracy    <       0.00013852 Ry

     iteration # 14     ecut=    80.00 Ry     beta= 0.30
     Davidson diagonalization with overlap
     ethr =  1.51E-07,  avg # of iterations =  2.0

     negative rho (up, down):  3.402E-03 0.000E+00

     total cpu time spent up to now is      295.8 secs

     total energy              =   -2326.92193214 Ry
     estimated scf accuracy    <       0.00005856 Ry

     iteration # 15     ecut=    80.00 Ry     beta= 0.30
     Davidson diagonalization with overlap
     ethr =  6.37E-08,  avg # of iterations =  3.7

     negative rho (up, down):  1.869E-03 0.000E+00

     total cpu time spent up to now is      313.2 secs

     total energy              =   -2326.92197916 Ry
     estimated scf accuracy    <       0.00004492 Ry

     iteration # 16     ecut=    80.00 Ry     beta= 0.30
     Davidson diagonalization with overlap
     ethr =  4.88E-08,  avg # of iterations =  4.8

     negative rho (up, down):  9.059E-04 0.000E+00

     total cpu time spent up to now is      332.1 secs

     total energy              =   -2326.92199724 Ry
     estimated scf accuracy    <       0.00002956 Ry

     iteration # 17     ecut=    80.00 Ry     beta= 0.30
     Davidson diagonalization with overlap
     ethr =  3.21E-08,  avg # of iterations =  2.0

     negative rho (up, down):  5.225E-04 0.000E+00

     total cpu time spent up to now is      350.1 secs

     total energy              =   -2326.92200559 Ry
     estimated scf accuracy    <       0.00001721 Ry

     iteration # 18     ecut=    80.00 Ry     beta= 0.30
     Davidson diagonalization with overlap
     ethr =  1.87E-08,  avg # of iterations =  1.7

     negative rho (up, down):  9.450E-05 0.000E+00

     total cpu time spent up to now is      367.2 secs

     total energy              =   -2326.92200778 Ry
     estimated scf accuracy    <       0.00001007 Ry

     iteration # 19     ecut=    80.00 Ry     beta= 0.30
     Davidson diagonalization with overlap
     ethr =  1.10E-08,  avg # of iterations =  2.0

     negative rho (up, down):  1.228E-04 0.000E+00

     total cpu time spent up to now is      385.4 secs

     total energy              =   -2326.92200858 Ry
     estimated scf accuracy    <       0.00000489 Ry

     iteration # 20     ecut=    80.00 Ry     beta= 0.30
     Davidson diagonalization with overlap
     ethr =  5.31E-09,  avg # of iterations =  2.0

     negative rho (up, down):  2.725E-04 0.000E+00

     total cpu time spent up to now is      403.9 secs

     total energy              =   -2326.92201085 Ry
     estimated scf accuracy    <       0.00000156 Ry

     iteration # 21     ecut=    80.00 Ry     beta= 0.30
     Davidson diagonalization with overlap
     ethr =  1.69E-09,  avg # of iterations =  2.2

     negative rho (up, down):  3.284E-04 0.000E+00

     total cpu time spent up to now is      422.4 secs

     total energy              =   -2326.92201075 Ry
     estimated scf accuracy    <       0.00000041 Ry

     iteration # 22     ecut=    80.00 Ry     beta= 0.30
     Davidson diagonalization with overlap
     ethr =  4.45E-10,  avg # of iterations =  2.3

     negative rho (up, down):  2.896E-04 0.000E+00

     total cpu time spent up to now is      442.0 secs

     total energy              =   -2326.92201088 Ry
     estimated scf accuracy    <       0.00000012 Ry

     iteration # 23     ecut=    80.00 Ry     beta= 0.30
     Davidson diagonalization with overlap
     ethr =  1.27E-10,  avg # of iterations =  2.1

     negative rho (up, down):  2.329E-04 0.000E+00

     total cpu time spent up to now is      460.4 secs

     total energy              =   -2326.92201094 Ry
     estimated scf accuracy    <       0.00000006 Ry

     iteration # 24     ecut=    80.00 Ry     beta= 0.30
     Davidson diagonalization with overlap
     ethr =  6.26E-11,  avg # of iterations =  2.4

     negative rho (up, down):  2.042E-04 0.000E+00

     total cpu time spent up to now is      478.9 secs

     total energy              =   -2326.92201102 Ry
     estimated scf accuracy    <       0.00000003 Ry

     iteration # 25     ecut=    80.00 Ry     beta= 0.30
     Davidson diagonalization with overlap
     ethr =  3.58E-11,  avg # of iterations =  2.4

     negative rho (up, down):  1.920E-04 0.000E+00

     total cpu time spent up to now is      498.4 secs

     End of self-consistent calculation

          k = 0.0000 0.0000 0.0000 ( 37787 PWs)   bands (ev):

   -61.8961 -61.8952 -48.2912 -48.2912 -48.2907 -48.2907 -48.2896 -48.2896
   -48.2893 -48.2893 -48.2456 -48.2456 -48.2452 -48.2452 -48.2440 -48.2440
   -48.2438 -48.2438 -48.2270 -48.2264 -48.2254 -48.2251 -36.0146 -36.0135
   -35.8992 -35.8992 -35.8979 -35.8979 -15.2942 -15.2907 -14.4759 -14.4744
    -6.4372  -6.4342  -3.3607  -3.3607  -3.3545  -3.3545  -3.3377  -3.3347
    -1.5918  -1.5875  -1.0643  -1.0643  -1.0614  -1.0614   0.2290   0.2290
     0.2318   0.2318   2.9475   2.9476   2.9496   2.9497   2.9808

          k = 0.0000 0.0722 0.0000 ( 37755 PWs)   bands (ev):

   -61.8951 -61.8942 -48.2911 -48.2910 -48.2907 -48.2905 -48.2895 -48.2894
   -48.2893 -48.2891 -48.2457 -48.2457 -48.2452 -48.2452 -48.2441 -48.2441
   -48.2439 -48.2438 -48.2269 -48.2263 -48.2253 -48.2250 -36.0124 -36.0113
   -35.9098 -35.9085 -35.9016 -35.9003 -15.2374 -15.2339 -14.4465 -14.4449
    -6.3595  -6.3564  -3.8332  -3.8292  -3.3287  -3.3226  -2.9336  -2.9307
    -1.6295  -1.6262  -1.2541  -1.2512  -1.2113  -1.2082   0.1210   0.1237
     0.3420   0.3445   2.6164   2.6324   2.8989   2.9010   3.0957

          k = 0.0000 0.1443 0.0000 ( 37697 PWs)   bands (ev):

   -61.8924 -61.8915 -48.2911 -48.2907 -48.2904 -48.2900 -48.2895 -48.2893
   -48.2888 -48.2885 -48.2459 -48.2457 -48.2454 -48.2452 -48.2444 -48.2442
   -48.2440 -48.2439 -48.2266 -48.2260 -48.2251 -48.2248 -36.0060 -36.0049
   -35.9399 -35.9386 -35.9086 -35.9072 -15.0710 -15.0676 -14.3603 -14.3586
    -6.1342  -6.1312  -4.3190  -4.3146  -3.2534  -3.2473  -2.7142  -2.7118
    -2.0774  -2.0750  -1.4988  -1.4954  -1.4567  -1.4542   0.0016   0.0051
     0.5326   0.5344   2.0238   2.0400   2.7992   2.8010   3.3529

          k = 0.0000 0.2165 0.0000 ( 37653 PWs)   bands (ev):

   -61.8883 -61.8874 -48.2911 -48.2907 -48.2896 -48.2894 -48.2893 -48.2892
   -48.2880 -48.2878 -48.2462 -48.2459 -48.2455 -48.2453 -48.2447 -48.2443
   -48.2441 -48.2439 -48.2262 -48.2257 -48.2247 -48.2244 -35.9968 -35.9957
   -35.9844 -35.9830 -35.9189 -35.9176 -14.8081 -14.8047 -14.2239 -14.2220
    -5.7936  -5.7905  -4.7484  -4.7438  -3.2577  -3.2547  -3.2017  -3.1958
    -2.4353  -2.4335  -1.7225  -1.7188  -1.5572  -1.5556  -0.0298  -0.0261
     0.6390   0.6403   1.6617   1.6792   2.7337   2.7355   3.7254

          k = 0.0000 0.2887 0.0000 ( 37721 PWs)   bands (ev):

   -61.8834 -61.8825 -48.2911 -48.2907 -48.2895 -48.2892 -48.2887 -48.2883
   -48.2871 -48.2869 -48.2466 -48.2460 -48.2457 -48.2453 -48.2451 -48.2445
   -48.2443 -48.2439 -48.2258 -48.2252 -48.2242 -48.2239 -36.0375 -36.0360
   -35.9848 -35.9838 -35.9311 -35.9298 -14.4748 -14.4716 -14.0461 -14.0439
    -5.4821  -5.4786  -4.9883  -4.9843  -4.2797  -4.2763  -3.2562  -3.2505
    -2.6205  -2.6196  -1.8098  -1.8089  -1.7661  -1.7621   0.0517   0.0551
     0.6441   0.6452   1.7674   1.7868   2.7349   2.7368   4.2033

          k = 0.0000 0.3608 0.0000 ( 37749 PWs)   bands (ev):

   -61.8786 -61.8777 -48.2911 -48.2906 -48.2895 -48.2891 -48.2878 -48.2874
   -48.2862 -48.2860 -48.2470 -48.2462 -48.2459 -48.2455 -48.2454 -48.2446
   -48.2445 -48.2440 -48.2253 -48.2248 -48.2238 -48.2235 -36.0894 -36.0880
   -35.9735 -35.9725 -35.9433 -35.9419 -14.1266 -14.1233 -13.8266 -13.8241
    -5.5990  -5.5947  -5.2371  -5.2340  -4.7241  -4.7210  -3.4047  -3.3993
    -2.9804  -2.9799  -2.0750  -2.0742  -1.6609  -1.6569   0.3116   0.3142
     0.6210   0.6223   2.1862   2.2058   2.7715   2.7735   4.7597

          k = 0.0000 0.4330 0.0000 ( 37785 PWs)   bands (ev):

   -61.8744 -61.8735 -48.2912 -48.2905 -48.2896 -48.2890 -48.2871 -48.2867
   -48.2854 -48.2852 -48.2474 -48.2463 -48.2460 -48.2459 -48.2455 -48.2448
   -48.2446 -48.2441 -48.2249 -48.2244 -48.2234 -48.2231 -36.1332 -36.1317
   -35.9639 -35.9629 -35.9536 -35.9522 -13.8627 -13.8593 -13.5477 -13.5451
    -6.1994  -6.1955  -5.5770  -5.5738  -4.5343  -4.5318  -3.5639  -3.5586
    -3.2347  -3.2338  -2.2484  -2.2477  -1.5272  -1.5235   0.6355   0.6373
     0.6770   0.6786   2.7038   2.7199   2.8080   2.8103   5.1157

          k = 0.0000 0.5052 0.0000 ( 37822 PWs)   bands (ev):

   -61.8717 -61.8708 -48.2912 -48.2904 -48.2897 -48.2890 -48.2865 -48.2862
   -48.2849 -48.2847 -48.2476 -48.2464 -48.2461 -48.2461 -48.2455 -48.2448
   -48.2447 -48.2441 -48.2247 -48.2241 -48.2232 -48.2228 -36.1622 -36.1607
   -35.9604 -35.9591 -35.9574 -35.9564 -13.7175 -13.7139 -13.2859 -13.2833
    -6.7569  -6.7531  -5.5982  -5.5957  -4.7014  -4.6991  -3.6760  -3.6707
    -3.1146  -3.1132  -2.3765  -2.3759  -1.4400  -1.4367   0.6847   0.6869
     1.0187   1.0195   2.8305   2.8330   3.1548   3.1639   4.6727

          k = 0.0000-0.5774 0.0000 ( 37832 PWs)   bands (ev):

   -61.8707 -61.8698 -48.2912 -48.2904 -48.2897 -48.2889 -48.2864 -48.2860
   -48.2848 -48.2846 -48.2477 -48.2464 -48.2462 -48.2461 -48.2455 -48.2449
   -48.2447 -48.2441 -48.2246 -48.2240 -48.2231 -48.2227 -36.1724 -36.1709
   -35.9629 -35.9615 -35.9552 -35.9541 -13.6700 -13.6663 -13.1793 -13.1768
    -6.9622  -6.9583  -5.5686  -5.5666  -4.8443  -4.8416  -3.7156  -3.7104
    -2.9860  -2.9843  -2.4450  -2.4444  -1.4122  -1.4091   0.7122   0.7147
     1.1658   1.1661   2.8378   2.8403   3.3778   3.3815   4.3471

          k = 0.0625 0.1083 0.0000 ( 37709 PWs)   bands (ev):

   -61.8933 -61.8924 -48.2911 -48.2907 -48.2906 -48.2902 -48.2895 -48.2893
   -48.2890 -48.2888 -48.2458 -48.2457 -48.2453 -48.2452 -48.2443 -48.2441
   -48.2439 -48.2439 -48.2267 -48.2261 -48.2252 -48.2248 -36.0080 -36.0070
   -35.9299 -35.9285 -35.9066 -35.9053 -15.1257 -15.1223 -14.3887 -14.3870
    -6.2075  -6.2045  -4.1900  -4.1857  -3.2822  -3.2761  -2.7347  -2.7321
    -1.8765  -1.8748  -1.4990  -1.4956  -1.3812  -1.3788   0.0623   0.0656
     0.4323   0.4342   2.2509   2.2678   2.7544   2.7571   3.2757

          k = 0.0625 0.1804 0.0000 ( 37703 PWs)   bands (ev):

   -61.8899 -61.8889 -48.2910 -48.2907 -48.2900 -48.2896 -48.2894 -48.2893
   -48.2884 -48.2881 -48.2461 -48.2458 -48.2454 -48.2453 -48.2446 -48.2443
   -48.2440 -48.2439 -48.2264 -48.2258 -48.2248 -48.2245 -36.0001 -35.9990
   -35.9665 -35.9651 -35.9161 -35.9148 -14.9107 -14.9073 -14.2776 -14.2757
    -5.9196  -5.9165  -4.6038  -4.5992  -3.2766  -3.2707  -2.8109  -2.8086
    -2.4536  -2.4513  -1.7538  -1.7506  -1.4131  -1.4110   0.0614   0.0649
     0.4329   0.4342   1.9312   1.9483   2.5806   2.5831   3.5862

          k = 0.0625 0.2526 0.0000 ( 37702 PWs)   bands (ev):

   -61.8854 -61.8845 -48.2910 -48.2906 -48.2894 -48.2892 -48.2891 -48.2887
   -48.2875 -48.2873 -48.2465 -48.2459 -48.2456 -48.2454 -48.2450 -48.2444
   -48.2442 -48.2440 -48.2260 -48.2254 -48.2244 -48.2241 -36.0142 -36.0128
   -35.9894 -35.9884 -35.9285 -35.9271 -14.6105 -14.6073 -14.1215 -14.1194
    -5.5520  -5.5489  -4.9480  -4.9434  -3.8356  -3.8318  -3.2223  -3.2176
    -2.5994  -2.5976  -1.9637  -1.9612  -1.4440  -1.4424  -0.0023   0.0005
     0.5124   0.5143   1.8242   1.8401   2.5507   2.5554   4.0101

          k = 0.0625 0.3248 0.0000 ( 37734 PWs)   bands (ev):

   -61.8805 -61.8796 -48.2910 -48.2905 -48.2894 -48.2891 -48.2883 -48.2879
   -48.2867 -48.2864 -48.2469 -48.2461 -48.2458 -48.2454 -48.2454 -48.2446
   -48.2444 -48.2440 -48.2255 -48.2249 -48.2240 -48.2236 -36.0652 -36.0637
   -35.9782 -35.9771 -35.9419 -35.9405 -14.2622 -14.2590 -13.9280 -13.9256
    -5.4451  -5.4409  -4.9241  -4.9210  -4.7798  -4.7761  -3.4618  -3.4573
    -2.7249  -2.7236  -2.2787  -2.2764  -1.4337  -1.4315   0.0486   0.0508
     0.6612   0.6627   1.9617   1.9754   2.6420   2.6500   4.5332

          k = 0.0625 0.3969 0.0000 ( 37770 PWs)   bands (ev):

   -61.8760 -61.8751 -48.2910 -48.2904 -48.2895 -48.2890 -48.2874 -48.2871
   -48.2858 -48.2856 -48.2472 -48.2463 -48.2459 -48.2457 -48.2455 -48.2448
   -48.2445 -48.2441 -48.2251 -48.2245 -48.2235 -48.2232 -36.1119 -36.1104
   -35.9678 -35.9667 -35.9542 -35.9528 -13.9460 -13.9427 -13.6838 -13.6812
    -5.8152  -5.8111  -5.4809  -5.4775  -4.5585  -4.5557  -3.7068  -3.7028
    -2.9890  -2.9876  -2.4968  -2.4947  -1.3657  -1.3633   0.2459   0.2473
     0.8184   0.8196   2.2515   2.2592   2.8129   2.8244   5.0905

          k = 0.0625 0.4691 0.0000 ( 37798 PWs)   bands (ev):

   -61.8726 -61.8717 -48.2911 -48.2903 -48.2895 -48.2888 -48.2868 -48.2864
   -48.2852 -48.2850 -48.2475 -48.2464 -48.2460 -48.2460 -48.2456 -48.2449
   -48.2445 -48.2442 -48.2248 -48.2242 -48.2232 -48.2229 -36.1474 -36.1459
   -35.9640 -35.9626 -35.9593 -35.9583 -13.7485 -13.7451 -13.3982 -13.3956
    -6.4702  -6.4664  -5.5873  -5.5843  -4.5530  -4.5506  -3.8007  -3.7962
    -3.1039  -3.1022  -2.6021  -2.6005  -1.3257  -1.3234   0.4879   0.4893
     1.0007   1.0017   2.4788   2.4814   3.0707   3.0813   5.1230

          k = 0.0625 0.5413 0.0000 ( 37791 PWs)   bands (ev):

   -61.8707 -61.8698 -48.2911 -48.2903 -48.2895 -48.2888 -48.2865 -48.2861
   -48.2849 -48.2847 -48.2476 -48.2465 -48.2462 -48.2460 -48.2456 -48.2450
   -48.2446 -48.2442 -48.2246 -48.2240 -48.2231 -48.2227 -36.1666 -36.1651
   -35.9689 -35.9675 -35.9552 -35.9542 -13.6553 -13.6517 -13.2030 -13.2004
    -6.8570  -6.8532  -5.5697  -5.5674  -4.7628  -4.7603  -3.8182  -3.8135
    -2.9908  -2.9890  -2.6744  -2.6730  -1.3268  -1.3247   0.6680   0.6701
     1.1305   1.1310   2.5764   2.5786   3.3168   3.3218   4.6457

          k = 0.1250 0.2165 0.0000 ( 37731 PWs)   bands (ev):

   -61.8861 -61.8851 -48.2910 -48.2906 -48.2894 -48.2893 -48.2891 -48.2889
   -48.2877 -48.2875 -48.2464 -48.2459 -48.2456 -48.2454 -48.2449 -48.2443
   -48.2441 -48.2440 -48.2260 -48.2254 -48.2245 -48.2242 -36.0044 -36.0030
   -35.9913 -35.9902 -35.9291 -35.9277 -14.6571 -14.6538 -14.1474 -14.1453
    -5.5828  -5.5797  -4.9156  -4.9109  -3.6939  -3.6894  -3.0092  -3.0071
    -2.8638  -2.8596  -1.9315  -1.9293  -1.3228  -1.3211   0.0528   0.0542
     0.3126   0.3163   2.1547   2.1749   2.1851   2.1874   3.9479

          k = 0.1250 0.2887 0.0000 ( 37723 PWs)   bands (ev):

   -61.8816 -61.8807 -48.2909 -48.2904 -48.2893 -48.2889 -48.2886 -48.2882
   -48.2870 -48.2868 -48.2468 -48.2460 -48.2457 -48.2455 -48.2453 -48.2444
   -48.2443 -48.2441 -48.2256 -48.2250 -48.2241 -48.2237 -36.0479 -36.0465
   -35.9809 -35.9799 -35.9450 -35.9437 -14.3347 -14.3315 -13.9801 -13.9778
    -5.2690  -5.2650  -5.0799  -5.0762  -4.4618  -4.4580  -3.4617  -3.4586
    -2.9535  -2.9498  -2.1992  -2.1978  -1.1960  -1.1944  -0.1601  -0.1583
     0.6058   0.6086   1.8728   1.8758   2.4659   2.4862   4.4198

          k = 0.1250 0.3608 0.0000 ( 37761 PWs)   bands (ev):

   -61.8771 -61.8762 -48.2908 -48.2902 -48.2892 -48.2887 -48.2879 -48.2875
   -48.2863 -48.2860 -48.2471 -48.2462 -48.2458 -48.2456 -48.2456 -48.2447
   -48.2444 -48.2442 -48.2252 -48.2246 -48.2236 -48.2233 -36.0908 -36.0894
   -35.9711 -35.9700 -35.9608 -35.9594 -13.9945 -13.9913 -13.7792 -13.7766
    -5.4720  -5.4676  -5.2617  -5.2582  -4.6657  -4.6627  -3.8497  -3.8464
    -3.0528  -3.0497  -2.6294  -2.6280  -1.0650  -1.0634  -0.1247  -0.1233
     0.8890   0.8906   1.7910   1.7938   2.7765   2.7948   4.9770

          k = 0.1250 0.4330 0.0000 ( 37768 PWs)   bands (ev):

   -61.8733 -61.8724 -48.2907 -48.2900 -48.2891 -48.2886 -48.2872 -48.2869
   -48.2856 -48.2854 -48.2474 -48.2464 -48.2459 -48.2459 -48.2457 -48.2449
   -48.2444 -48.2443 -48.2248 -48.2243 -48.2233 -48.2230 -36.1268 -36.1254
   -35.9761 -35.9747 -35.9608 -35.9598 -13.7445 -13.7412 -13.5161 -13.5134
    -6.0616  -6.0578  -5.5207  -5.5172  -4.3949  -4.3923  -4.0769  -4.0733
    -3.1643  -3.1617  -2.9781  -2.9763  -1.0329  -1.0316   0.1191   0.1201
     1.0796   1.0808   1.9012   1.9034   3.0592   3.0719   5.4486

          k = 0.1250 0.5052 0.0000 ( 37794 PWs)   bands (ev):

   -61.8707 -61.8698 -48.2907 -48.2899 -48.2891 -48.2884 -48.2868 -48.2864
   -48.2852 -48.2850 -48.2475 -48.2466 -48.2460 -48.2460 -48.2457 -48.2451
   -48.2445 -48.2443 -48.2246 -48.2240 -48.2231 -48.2228 -36.1507 -36.1493
   -35.9852 -35.9838 -35.9552 -35.9542 -13.6127 -13.6092 -13.2671 -13.2644
    -6.5648  -6.5611  -5.5539  -5.5510  -4.5676  -4.5650  -4.0286  -4.0248
    -3.2457  -3.2434  -3.0420  -3.0401  -1.0900  -1.0890   0.4571   0.4583
     1.1290   1.1301   2.0683   2.0700   3.2501   3.2561   5.2949

          k = 0.1250 0.5774 0.0000 ( 37780 PWs)   bands (ev):

   -61.8698 -61.8689 -48.2907 -48.2899 -48.2891 -48.2884 -48.2867 -48.2863
   -48.2850 -48.2849 -48.2476 -48.2467 -48.2461 -48.2460 -48.2457 -48.2452
   -48.2445 -48.2443 -48.2245 -48.2240 -48.2230 -48.2227 -36.1591 -36.1576
   -35.9884 -35.9870 -35.9531 -35.9521 -13.5690 -13.5654 -13.1678 -13.1651
    -6.7484  -6.7446  -5.5459  -5.5434  -4.6822  -4.6795  -4.0251  -4.0211
    -3.2749  -3.2727  -2.9966  -2.9947  -1.1291  -1.1281   0.6587   0.6604
     1.0806   1.0813   2.1514   2.1531   3.3164   3.3194   5.0176

          k = 0.1875 0.3248 0.0000 ( 37725 PWs)   bands (ev):

   -61.8775 -61.8765 -48.2906 -48.2901 -48.2891 -48.2886 -48.2881 -48.2876
   -48.2865 -48.2862 -48.2471 -48.2461 -48.2458 -48.2456 -48.2456 -48.2446
   -48.2444 -48.2443 -48.2252 -48.2247 -48.2237 -48.2234 -36.0813 -36.0798
   -35.9732 -35.9721 -35.9643 -35.9631 -14.0098 -14.0067 -13.8139 -13.8112
    -5.3396  -5.3352  -5.0930  -5.0893  -4.7546  -4.7518  -3.8527  -3.8501
    -3.3336  -3.3296  -2.5101  -2.5089  -0.8966  -0.8951  -0.3045  -0.3031
     0.8871   0.8891   1.6048   1.6060   2.7645   2.7850   4.9317

          k = 0.1875 0.3969 0.0000 ( 37753 PWs)   bands (ev):

   -61.8736 -61.8727 -48.2904 -48.2897 -48.2888 -48.2883 -48.2876 -48.2872
   -48.2860 -48.2858 -48.2473 -48.2463 -48.2460 -48.2458 -48.2457 -48.2448
   -48.2445 -48.2443 -48.2249 -48.2243 -48.2233 -48.2230 -36.1100 -36.1086
   -35.9884 -35.9870 -35.9617 -35.9607 -13.7069 -13.7037 -13.6165 -13.6136
    -5.6927  -5.6889  -5.4434  -5.4394  -4.3541  -4.3513  -4.2047  -4.2019
    -3.6593  -3.6558  -2.9089  -2.9076  -0.6902  -0.6891  -0.2363  -0.2354
     1.1089   1.1101   1.5240   1.5254   3.0608   3.0747   5.4918

          k = 0.1875 0.4691 0.0000 ( 37759 PWs)   bands (ev):

   -61.8707 -61.8698 -48.2902 -48.2895 -48.2886 -48.2880 -48.2873 -48.2869
   -48.2857 -48.2854 -48.2474 -48.2466 -48.2461 -48.2459 -48.2457 -48.2451
   -48.2446 -48.2443 -48.2246 -48.2241 -48.2230 -48.2228 -36.1309 -36.1295
   -36.0055 -36.0041 -35.9552 -35.9542 -13.5465 -13.5431 -13.3542 -13.3513
    -6.1770  -6.1733  -5.5107  -5.5071  -4.4266  -4.4237  -4.1179  -4.1151
    -3.8848  -3.8820  -3.1789  -3.1773  -0.7416  -0.7411   0.1057   0.1065
     1.1491   1.1503   1.6750   1.6765   3.2291   3.2355   5.7183

          k = 0.1875 0.5413 0.0000 ( 37793 PWs)   bands (ev):

   -61.8691 -61.8682 -48.2901 -48.2893 -48.2885 -48.2878 -48.2871 -48.2867
   -48.2855 -48.2853 -48.2475 -48.2468 -48.2461 -48.2460 -48.2457 -48.2453
   -48.2447 -48.2443 -48.2245 -48.2239 -48.2229 -48.2226 -36.1419 -36.1404
   -36.0151 -36.0137 -35.9516 -35.9506 -13.4689 -13.4654 -13.1847 -13.1819
    -6.4543  -6.4506  -5.5392  -5.5360  -4.5202  -4.5171  -4.1607  -4.1576
    -3.9595  -3.9573  -3.2001  -3.1982  -0.8295  -0.8292   0.4726   0.4734
     1.0016   1.0029   1.8860   1.8872   3.2269   3.2297   5.6353

          k = 0.2500 0.4330 0.0000 ( 37711 PWs)   bands (ev):

   -61.8707 -61.8698 -48.2899 -48.2892 -48.2884 -48.2877 -48.2875 -48.2871
   -48.2859 -48.2856 -48.2474 -48.2465 -48.2462 -48.2459 -48.2457 -48.2450
   -48.2448 -48.2443 -48.2246 -48.2241 -48.2230 -48.2228 -36.1205 -36.1191
   -36.0161 -36.0147 -35.9552 -35.9542 -13.4847 -13.4814 -13.4245 -13.4216
    -5.9565  -5.9528  -5.4791  -5.4752  -4.4081  -4.4057  -4.2481  -4.2449
    -4.0436  -4.0407  -3.2746  -3.2733  -0.3308  -0.3302  -0.3100  -0.3089
     1.1446   1.1456   1.5501   1.5514   3.2276   3.2339   5.9061

          k = 0.2500 0.5052 0.0000 ( 37776 PWs)   bands (ev):

   -61.8688 -61.8679 -48.2896 -48.2888 -48.2880 -48.2875 -48.2873 -48.2871
   -48.2859 -48.2857 -48.2473 -48.2468 -48.2464 -48.2458 -48.2456 -48.2452
   -48.2449 -48.2442 -48.2244 -48.2239 -48.2229 -48.2226 -36.1230 -36.1216
   -36.0391 -36.0377 -35.9508 -35.9498 -13.3750 -13.3716 -13.2375 -13.2345
    -6.1042  -6.1006  -5.5309  -5.5270  -4.6676  -4.6640  -4.3854  -4.3832
    -3.9697  -3.9675  -3.5125  -3.5109  -0.4331  -0.4329   0.0626   0.0631
     0.9648   0.9662   1.8417   1.8430   3.1572   3.1597   5.7935

          k = 0.2500 0.5774 0.0000 ( 37791 PWs)   bands (ev):

   -61.8681 -61.8672 -48.2894 -48.2887 -48.2878 -48.2876 -48.2872 -48.2871
   -48.2860 -48.2857 -48.2473 -48.2469 -48.2464 -48.2458 -48.2456 -48.2454
   -48.2450 -48.2442 -48.2244 -48.2238 -48.2228 -48.2226 -36.1225 -36.1210
   -36.0487 -36.0473 -35.9492 -35.9482 -13.3363 -13.3329 -13.1676 -13.1647
    -6.1471  -6.1435  -5.5611  -5.5573  -4.8205  -4.8170  -4.2056  -4.2035
    -4.1860  -4.1840  -3.5133  -3.5114  -0.4840  -0.4839   0.3213   0.3214
     0.7576   0.7595   2.0609   2.0618   3.0203   3.0221   5.6870

          k = 0.3125 0.5413 0.0000 ( 37789 PWs)   bands (ev):

   -61.8677 -61.8668 -48.2889 -48.2882 -48.2879 -48.2875 -48.2874 -48.2867
   -48.2863 -48.2860 -48.2472 -48.2469 -48.2466 -48.2457 -48.2456 -48.2454
   -48.2452 -48.2442 -48.2243 -48.2238 -48.2228 -48.2225 -36.1050 -36.1036
   -36.0712 -36.0697 -35.9484 -35.9474 -13.2569 -13.2535 -13.1950 -13.1920
    -5.8429  -5.8393  -5.5708  -5.5668  -5.2601  -5.2567  -4.2187  -4.2168
    -3.8806  -3.8785  -3.8781  -3.8771  -0.1465  -0.1460   0.0308   0.0310
     0.6579   0.6601   2.2687   2.2699   2.8332   2.8348   5.6183

     the Fermi energy is    -0.2956 ev

!    total energy              =   -2326.92201099 Ry
     total all-electron energy =    -35628.669840 Ry
     estimated scf accuracy    <          5.2E-09 Ry
     smearing contrib. (-TS)   =       0.00090215 Ry
     internal energy E=F+TS    =   -2326.92291314 Ry

     The total energy is F=E-TS. E is the sum of the following terms:
     one-electron contribution =  -19495.07701189 Ry
     hartree contribution      =    9735.76797641 Ry
     xc contribution           =    -152.42427418 Ry
     ewald contribution        =    8595.32489526 Ry
     one-center paw contrib.   =   -1010.51449873 Ry

     convergence has been achieved in  25 iterations

     Writing all to output data dir ./tmp/cleave_026/mose2_cleave_026.save/ :
     XML data file, charge density, pseudopotentials, collected wavefunctions

     init_run     :     11.40s CPU     11.80s WALL (       1 calls)
     electrons    :    472.48s CPU    486.51s WALL (       1 calls)

     Called by init_run:
     wfcinit      :      5.22s CPU      5.35s WALL (       1 calls)
     potinit      :      5.50s CPU      5.68s WALL (       1 calls)
     hinit0       :      0.05s CPU      0.06s WALL (       1 calls)

     Called by electrons:
     c_bands      :    392.59s CPU    400.80s WALL (      26 calls)
     sum_band     :     52.23s CPU     55.20s WALL (      26 calls)
     v_of_rho     :     15.41s CPU     16.43s WALL (      26 calls)
     newd         :     10.11s CPU     12.01s WALL (      26 calls)
     PAW_pot      :      1.62s CPU      1.67s WALL (      26 calls)
     mix_rho      :      6.18s CPU      6.28s WALL (      26 calls)
     vdW_kernel   :      5.05s CPU      5.20s WALL (       1 calls)

     Called by c_bands:
     init_us_2    :      2.11s CPU      2.13s WALL (    1590 calls)
     cegterg      :    381.12s CPU    388.99s WALL (     780 calls)

     Called by *egterg:
     cdiaghg      :      8.96s CPU      8.98s WALL (    3350 calls)
     h_psi        :    148.49s CPU    150.67s WALL (    3410 calls)
     s_psi        :     20.15s CPU     20.18s WALL (    3410 calls)
     g_psi        :      0.27s CPU      0.28s WALL (    2600 calls)

     Called by h_psi:
     h_psi:calbec :     49.17s CPU     50.43s WALL (    3410 calls)
     vloc_psi     :     76.65s CPU     77.54s WALL (    3410 calls)
                                        0.00s GPU  (    3410 calls)
     add_vuspsi   :     22.34s CPU     22.37s WALL (    3410 calls)

     General routines
     calbec       :     70.50s CPU     72.35s WALL (    4190 calls)
     fft          :      7.75s CPU      8.00s WALL (    1637 calls)
     ffts         :      2.37s CPU      2.40s WALL (    3004 calls)
     fftw         :     90.57s CPU     91.64s WALL (  231852 calls)
     interpolate  :      0.11s CPU      0.12s WALL (      26 calls)

     Parallel routines

     PWSCF        :   8m 4.39s CPU   8m19.06s WALL


   This run was terminated on:  12:15:56  20Jun2026            

=------------------------------------------------------------------------------=
   JOB DONE.
=------------------------------------------------------------------------------=
Note: The following floating-point exceptions are signalling: IEEE_UNDERFLOW_FLAG IEEE_DENORMAL
Note: The following floating-point exceptions are signalling: IEEE_UNDERFLOW_FLAG IEEE_DENORMAL
Note: The following floating-point exceptions are signalling: IEEE_UNDERFLOW_FLAG IEEE_DENORMAL
Note: The following floating-point exceptions are signalling: IEEE_UNDERFLOW_FLAG IEEE_DENORMAL
Note: The following floating-point exceptions are signalling: IEEE_UNDERFLOW_FLAG IEEE_DENORMAL
Note: The following floating-point exceptions are signalling: IEEE_UNDERFLOW_FLAG IEEE_DENORMAL
Note: The following floating-point exceptions are signalling: IEEE_UNDERFLOW_FLAG IEEE_DENORMAL
Note: The following floating-point exceptions are signalling: IEEE_UNDERFLOW_FLAG IEEE_DENORMAL
Note: The following floating-point exceptions are signalling: IEEE_UNDERFLOW_FLAG IEEE_DENORMAL
Note: The following floating-point exceptions are signalling: IEEE_UNDERFLOW_FLAG IEEE_DENORMAL
Note: The following floating-point exceptions are signalling: IEEE_UNDERFLOW_FLAG IEEE_DENORMAL
Note: The following floating-point exceptions are signalling: IEEE_UNDERFLOW_FLAG IEEE_DENORMAL
Note: The following floating-point exceptions are signalling: IEEE_UNDERFLOW_FLAG IEEE_DENORMAL
Note: The following floating-point exceptions are signalling: IEEE_UNDERFLOW_FLAG IEEE_DENORMAL
Note: The following floating-point exceptions are signalling: IEEE_UNDERFLOW_FLAG IEEE_DENORMAL
Note: The following floating-point exceptions are signalling: IEEE_UNDERFLOW_FLAG IEEE_DENORMAL
Note: The following floating-point exceptions are signalling: IEEE_UNDERFLOW_FLAG IEEE_DENORMAL
Note: The following floating-point exceptions are signalling: IEEE_UNDERFLOW_FLAG IEEE_DENORMAL
Note: The following floating-point exceptions are signalling: IEEE_UNDERFLOW_FLAG IEEE_DENORMAL
Note: The following floating-point exceptions are signalling: IEEE_UNDERFLOW_FLAG IEEE_DENORMAL
Note: The following floating-point exceptions are signalling: IEEE_UNDERFLOW_FLAG IEEE_DENORMAL
Note: The following floating-point exceptions are signalling: IEEE_UNDERFLOW_FLAG IEEE_DENORMAL
Note: The following floating-point exceptions are signalling: IEEE_UNDERFLOW_FLAG IEEE_DENORMAL
Note: The following floating-point exceptions are signalling: IEEE_UNDERFLOW_FLAG IEEE_DENORMAL
