
     Program PWSCF v.7.5 starts on 20Jun2026 at 10:36:39 

     This program is part of the open-source Quantum ESPRESSO suite
     for quantum simulation of materials; please cite
         "P. Giannozzi et al., J. Phys.:Condens. Matter 21 395502 (2009);
         "P. Giannozzi et al., J. Phys.:Condens. Matter 29 465901 (2017);
         "P. Giannozzi et al., J. Chem. Phys. 152 154105 (2020);
          URL http://www.quantum-espresso.org", 
     in publications or presentations arising from this work. More details at
     http://www.quantum-espresso.org/quote

     Parallel version (MPI), running on    24 processors

     MPI processes distributed on     1 nodes
     6892 MiB available memory on the printing compute node when the environment starts

     Waiting for input...
     Reading input from standard input

     Current dimensions of program PWSCF are:
     Max number of different atomic species (ntypx) = 10
     Max number of k-points (npk) =  40000
     Max angular momentum in pseudopotentials (lmaxx) =  4
     file Mo.pbe-spn-kjpaw_psl.1.0.0.UPF: wavefunction(s)  4S 4D renormalized
     file Se.pbe-dn-kjpaw_psl.1.0.0.UPF: wavefunction(s)  4S 4P 3D renormalized

     IMPORTANT: XC functional enforced from input :
     Exchange-correlation= VDW-DF2-B86R
                           (   1   4  26   0   2   0   0)
     Any further DFT definition will be discarded
     Please, verify this is what you really want


     R & G space division:  proc/nbgrp/npool/nimage =      24
     Subspace diagonalization in iterative solution of the eigenvalue problem:
     a serial algorithm will be used


     Parallelization info
     --------------------
     sticks:   dense  smooth     PW     G-vecs:    dense   smooth      PW
     Min          69      35     10                35537    12585    1924
     Max          70      36     11                35620    12648    1981
     Sum        1675     847    241               853823   302525   46513

     Using Slab Decomposition



     bravais-lattice index     =            4
     lattice parameter (alat)  =       6.1794  a.u.
     unit-cell volume          =    3124.5879 (a.u.)^3
     number of atoms/cell      =            6
     number of atomic types    =            2
     number of electrons       =        92.00
     number of Kohn-Sham states=           55
     kinetic-energy cutoff     =      80.0000  Ry
     charge density cutoff     =     640.0000  Ry
     scf convergence threshold =      1.0E-08
     mixing beta               =       0.3000
     number of iterations used =            8  local-TF  mixing
     Exchange-correlation= VDW-DF2-B86R
                           (   1   4  26   0   2   0   0)

     celldm(1)=   6.179404  celldm(2)=   0.000000  celldm(3)=  15.290520
     celldm(4)=   0.000000  celldm(5)=   0.000000  celldm(6)=   0.000000

     crystal axes: (cart. coord. in units of alat)
               a(1) = (   1.000000   0.000000   0.000000 )  
               a(2) = (  -0.500000   0.866025   0.000000 )  
               a(3) = (   0.000000   0.000000  15.290520 )  

     reciprocal axes: (cart. coord. in units 2 pi/alat)
               b(1) = (  1.000000  0.577350 -0.000000 )  
               b(2) = (  0.000000  1.154701  0.000000 )  
               b(3) = (  0.000000 -0.000000  0.065400 )  


     PseudoPot. # 1 for Mo read from file:
     ./pseudo/Mo.pbe-spn-kjpaw_psl.1.0.0.UPF
     MD5 check sum: 4396e0c640fcce5c25f020efccf1ab12
     Pseudo is Projector augmented-wave + core cor, Zval = 14.0
     Generated using &quot;atomic&quot; code by A. Dal Corso  v.6.3
     Shape of augmentation charge: PSQ
     Using radial grid of 1229 points,  6 beta functions with: 
                l(1) =   0
                l(2) =   0
                l(3) =   1
                l(4) =   1
                l(5) =   2
                l(6) =   2
     Q(r) pseudized with 0 coefficients 


     PseudoPot. # 2 for Se read from file:
     ./pseudo/Se.pbe-dn-kjpaw_psl.1.0.0.UPF
     MD5 check sum: ac240dd2bae32a30e0bf3a38df9c8785
     Pseudo is Projector augmented-wave + core cor, Zval = 16.0
     Generated using &quot;atomic&quot; code by A. Dal Corso  v.6.3
     Shape of augmentation charge: PSQ
     Using radial grid of 1211 points,  6 beta functions with: 
                l(1) =   0
                l(2) =   0
                l(3) =   1
                l(4) =   1
                l(5) =   2
                l(6) =   2
     Q(r) pseudized with 0 coefficients 


     atomic species   valence    mass     pseudopotential
     Mo               14.00    95.96000     Mo( 1.00)
     Se               16.00    78.96000     Se( 1.00)

      6 Sym. Ops. (no inversion) found



   Cartesian axes

     site n.     atom                  positions (alat units)
         1        Se     tau(   1) = (  -0.0000005   0.5773506   6.1238532  )
         2        Mo     tau(   2) = (   0.0000000   0.0000000   6.6502752  )
         3        Se     tau(   3) = (   0.5000005   0.2886748   7.1775994  )
         4        Se     tau(   4) = (  -0.0000005   0.5773506   8.9686086  )
         5        Mo     tau(   5) = (   0.5000005   0.2886748   9.4957951  )
         6        Se     tau(   6) = (   0.0000000   0.0000000  10.0229358  )

     number of k points=    30  Methfessel-Paxton smearing, width (Ry)=  0.0200
                       cart. coord. in units 2pi/alat
        k(    1) = (   0.0000000   0.0000000   0.0000000), wk =   0.0078125
        k(    2) = (   0.0000000   0.0721688   0.0000000), wk =   0.0468750
        k(    3) = (   0.0000000   0.1443376   0.0000000), wk =   0.0468750
        k(    4) = (   0.0000000   0.2165064   0.0000000), wk =   0.0468750
        k(    5) = (   0.0000000   0.2886751   0.0000000), wk =   0.0468750
        k(    6) = (   0.0000000   0.3608439   0.0000000), wk =   0.0468750
        k(    7) = (   0.0000000   0.4330127   0.0000000), wk =   0.0468750
        k(    8) = (   0.0000000   0.5051815   0.0000000), wk =   0.0468750
        k(    9) = (   0.0000000  -0.5773503   0.0000000), wk =   0.0234375
        k(   10) = (   0.0625000   0.1082532   0.0000000), wk =   0.0468750
        k(   11) = (   0.0625000   0.1804220   0.0000000), wk =   0.0937500
        k(   12) = (   0.0625000   0.2525907   0.0000000), wk =   0.0937500
        k(   13) = (   0.0625000   0.3247595   0.0000000), wk =   0.0937500
        k(   14) = (   0.0625000   0.3969283   0.0000000), wk =   0.0937500
        k(   15) = (   0.0625000   0.4690971   0.0000000), wk =   0.0937500
        k(   16) = (   0.0625000   0.5412659   0.0000000), wk =   0.0937500
        k(   17) = (   0.1250000   0.2165064   0.0000000), wk =   0.0468750
        k(   18) = (   0.1250000   0.2886751   0.0000000), wk =   0.0937500
        k(   19) = (   0.1250000   0.3608439   0.0000000), wk =   0.0937500
        k(   20) = (   0.1250000   0.4330127   0.0000000), wk =   0.0937500
        k(   21) = (   0.1250000   0.5051815   0.0000000), wk =   0.0937500
        k(   22) = (   0.1250000   0.5773503   0.0000000), wk =   0.0468750
        k(   23) = (   0.1875000   0.3247595   0.0000000), wk =   0.0468750
        k(   24) = (   0.1875000   0.3969283   0.0000000), wk =   0.0937500
        k(   25) = (   0.1875000   0.4690971   0.0000000), wk =   0.0937500
        k(   26) = (   0.1875000   0.5412659   0.0000000), wk =   0.0937500
        k(   27) = (   0.2500000   0.4330127   0.0000000), wk =   0.0468750
        k(   28) = (   0.2500000   0.5051815   0.0000000), wk =   0.0937500
        k(   29) = (   0.2500000   0.5773503   0.0000000), wk =   0.0468750
        k(   30) = (   0.3125000   0.5412659   0.0000000), wk =   0.0468750

     Dense  grid:   853823 G-vectors     FFT dimensions: (  50,  50, 768)

     Smooth grid:   302525 G-vectors     FFT dimensions: (  36,  36, 540)

     Estimated max dynamical RAM per process >     171.88 MB

     Estimated total dynamical RAM >       4.03 GB

     Initial potential from superposition of free atoms

     starting charge      91.9979, renormalised to      92.0000

     negative rho (up, down):  1.820E-04 0.000E+00


     %%%%%%%%%%%%%%%%%%%%%%%%%%%%%%%%%%%%%%%%%%%%%%%%%%%%%%%%%%%%%%%%%%%%%%%%
     %                                                                      %
     % You are using vdW-DF, which was implemented by the Thonhauser group. %
     % Please cite the following two papers that made this development      %
     % possible and the two reviews that describe the various versions:     %
     %                                                                      %
     %   T. Thonhauser et al., PRL 115, 136402 (2015).                      %
     %   T. Thonhauser et al., PRB 76, 125112 (2007).                       %
     %   K. Berland et al., Rep. Prog. Phys. 78, 066501 (2015).             %
     %   D.C. Langreth et al., J. Phys.: Condens. Matter 21, 084203 (2009). %
     %                                                                      %
     % If you are calculating stress with vdW-DF, please also cite:         %
     %                                                                      %
     %   R. Sabatini et al., J. Phys.: Condens. Matter 24, 424209 (2012).   %
     %                                                                      %
     %%%%%%%%%%%%%%%%%%%%%%%%%%%%%%%%%%%%%%%%%%%%%%%%%%%%%%%%%%%%%%%%%%%%%%%%

     %%%%%%%%%%%%%%%%%%%%%%%%%%%%%%%%%%%%%%%%%%%%%%%%%%%%%%%%%%%%%%%%%%%%%%%%
     %                                                                      %
     %  vdW-DF NEWS:                                                        %
     %                                                                      %
     %  * vdW-DF3 is now available. DOI: 10.1021/acs.jctc.0c00471           %
     %    use with input_dft = 'vdW-DF3-opt1' or 'vdW-DF3-opt2'             %
     %                                                                      %
     %  * Unscreened and range-separated hybrid vdW-DF-cx functionals       %
     %    DOI: 10.1063/1.4986522 and 10.1088/1361-648X/ac2ad2               %
     %    use with input_dft = 'vdW-DF-cx0'    and 'vdW-DF-ahcx'            %
     %  * Unscreened and range-separated hybrid vdW-DF2-b86r functionals    %
     %    DOI: 10.1063/1.4986522 and DOI: 10.1103/PhysRevX.12.041003        %
     %    use with input_dft = 'vdW-DF2-br0' and 'vdW-DF2-ahbr'             %
     %                                                                      %
     %%%%%%%%%%%%%%%%%%%%%%%%%%%%%%%%%%%%%%%%%%%%%%%%%%%%%%%%%%%%%%%%%%%%%%%%


     Starting wfcs are   56 randomized atomic wfcs
     Checking if some PAW data can be deallocated... 

     total cpu time spent up to now is       11.9 secs

     per-process dynamical memory:    79.7 Mb

     Self-consistent Calculation

     iteration #  1     ecut=    80.00 Ry     beta= 0.30
     Davidson diagonalization with overlap
     ethr =  1.00E-02,  avg # of iterations =  4.4

     Threshold (ethr) on eigenvalues was too large:
     Diagonalizing with lowered threshold

     Davidson diagonalization with overlap
     ethr =  4.47E-04,  avg # of iterations =  2.3

     negative rho (up, down):  7.252E-05 0.000E+00

     total cpu time spent up to now is       49.5 secs

     total energy              =   -2326.96449210 Ry
     estimated scf accuracy    <       0.45876875 Ry

     iteration #  2     ecut=    80.00 Ry     beta= 0.30
     Davidson diagonalization with overlap
     ethr =  4.99E-04,  avg # of iterations =  1.0

     negative rho (up, down):  3.649E-05 0.000E+00

     total cpu time spent up to now is       64.8 secs

     total energy              =   -2326.91775135 Ry
     estimated scf accuracy    <       0.24190289 Ry

     iteration #  3     ecut=    80.00 Ry     beta= 0.30
     Davidson diagonalization with overlap
     ethr =  2.63E-04,  avg # of iterations =  2.6

     negative rho (up, down):  1.229E-05 0.000E+00

     total cpu time spent up to now is       83.1 secs

     total energy              =   -2326.92475562 Ry
     estimated scf accuracy    <       0.03069881 Ry

     iteration #  4     ecut=    80.00 Ry     beta= 0.30
     Davidson diagonalization with overlap
     c_bands:  1 eigenvalues not converged
     ethr =  3.34E-05,  avg # of iterations =  8.4

     negative rho (up, down):  5.776E-06 0.000E+00

     total cpu time spent up to now is      104.8 secs

     total energy              =   -2326.92490418 Ry
     estimated scf accuracy    <       0.00919971 Ry

     iteration #  5     ecut=    80.00 Ry     beta= 0.30
     Davidson diagonalization with overlap
     c_bands:  1 eigenvalues not converged
     ethr =  1.00E-05,  avg # of iterations =  5.4

     negative rho (up, down):  8.527E-07 0.000E+00

     total cpu time spent up to now is      126.0 secs

     total energy              =   -2326.92438029 Ry
     estimated scf accuracy    <       0.00348076 Ry

     iteration #  6     ecut=    80.00 Ry     beta= 0.30
     Davidson diagonalization with overlap
     ethr =  3.78E-06,  avg # of iterations =  8.9

     negative rho (up, down):  4.661E-07 0.000E+00

     total cpu time spent up to now is      148.4 secs

     total energy              =   -2326.92443770 Ry
     estimated scf accuracy    <       0.00138931 Ry

     iteration #  7     ecut=    80.00 Ry     beta= 0.30
     Davidson diagonalization with overlap
     ethr =  1.51E-06,  avg # of iterations =  2.4

     negative rho (up, down):  4.786E-07 0.000E+00

     total cpu time spent up to now is      166.2 secs

     total energy              =   -2326.92432644 Ry
     estimated scf accuracy    <       0.00131083 Ry

     iteration #  8     ecut=    80.00 Ry     beta= 0.30
     Davidson diagonalization with overlap
     ethr =  1.42E-06,  avg # of iterations =  7.1

     negative rho (up, down):  2.556E-07 0.000E+00

     total cpu time spent up to now is      185.2 secs

     total energy              =   -2326.92428294 Ry
     estimated scf accuracy    <       0.00109673 Ry

     iteration #  9     ecut=    80.00 Ry     beta= 0.30
     Davidson diagonalization with overlap
     ethr =  1.19E-06,  avg # of iterations =  1.1

     negative rho (up, down):  6.373E-03 0.000E+00

     total cpu time spent up to now is      200.7 secs

     total energy              =   -2326.92413194 Ry
     estimated scf accuracy    <       0.00084358 Ry

     iteration # 10     ecut=    80.00 Ry     beta= 0.30
     Davidson diagonalization with overlap
     ethr =  9.17E-07,  avg # of iterations =  7.5

     negative rho (up, down):  5.820E-03 0.000E+00

     total cpu time spent up to now is      220.5 secs

     total energy              =   -2326.92404900 Ry
     estimated scf accuracy    <       0.00051259 Ry

     iteration # 11     ecut=    80.00 Ry     beta= 0.30
     Davidson diagonalization with overlap
     ethr =  5.57E-07,  avg # of iterations =  2.0

     negative rho (up, down):  5.290E-03 0.000E+00

     total cpu time spent up to now is      238.7 secs

     total energy              =   -2326.92408526 Ry
     estimated scf accuracy    <       0.00031234 Ry

     iteration # 12     ecut=    80.00 Ry     beta= 0.30
     Davidson diagonalization with overlap
     ethr =  3.40E-07,  avg # of iterations =  4.4

     negative rho (up, down):  3.869E-03 0.000E+00

     total cpu time spent up to now is      256.5 secs

     total energy              =   -2326.92410676 Ry
     estimated scf accuracy    <       0.00021433 Ry

     iteration # 13     ecut=    80.00 Ry     beta= 0.30
     Davidson diagonalization with overlap
     ethr =  2.33E-07,  avg # of iterations =  1.5

     negative rho (up, down):  2.122E-03 0.000E+00

     total cpu time spent up to now is      273.2 secs

     total energy              =   -2326.92405507 Ry
     estimated scf accuracy    <       0.00018098 Ry

     iteration # 14     ecut=    80.00 Ry     beta= 0.30
     Davidson diagonalization with overlap
     ethr =  1.97E-07,  avg # of iterations =  3.8

     negative rho (up, down):  3.119E-03 0.000E+00

     total cpu time spent up to now is      291.8 secs

     total energy              =   -2326.92401889 Ry
     estimated scf accuracy    <       0.00010500 Ry

     iteration # 15     ecut=    80.00 Ry     beta= 0.30
     Davidson diagonalization with overlap
     ethr =  1.14E-07,  avg # of iterations =  1.1

     negative rho (up, down):  3.199E-03 0.000E+00

     total cpu time spent up to now is      307.3 secs

     total energy              =   -2326.92406013 Ry
     estimated scf accuracy    <       0.00007096 Ry

     iteration # 16     ecut=    80.00 Ry     beta= 0.30
     Davidson diagonalization with overlap
     ethr =  7.71E-08,  avg # of iterations =  2.0

     negative rho (up, down):  2.799E-03 0.000E+00

     total cpu time spent up to now is      325.9 secs

     total energy              =   -2326.92407410 Ry
     estimated scf accuracy    <       0.00002235 Ry

     iteration # 17     ecut=    80.00 Ry     beta= 0.30
     Davidson diagonalization with overlap
     ethr =  2.43E-08,  avg # of iterations =  1.3

     negative rho (up, down):  1.372E-03 0.000E+00

     total cpu time spent up to now is      342.0 secs

     total energy              =   -2326.92408807 Ry
     estimated scf accuracy    <       0.00001503 Ry

     iteration # 18     ecut=    80.00 Ry     beta= 0.30
     Davidson diagonalization with overlap
     ethr =  1.63E-08,  avg # of iterations =  2.8

     negative rho (up, down):  9.956E-04 0.000E+00

     total cpu time spent up to now is      360.4 secs

     total energy              =   -2326.92409178 Ry
     estimated scf accuracy    <       0.00000409 Ry

     iteration # 19     ecut=    80.00 Ry     beta= 0.30
     Davidson diagonalization with overlap
     ethr =  4.44E-09,  avg # of iterations =  1.5

     negative rho (up, down):  3.912E-04 0.000E+00

     total cpu time spent up to now is      376.8 secs

     total energy              =   -2326.92409281 Ry
     estimated scf accuracy    <       0.00000236 Ry

     iteration # 20     ecut=    80.00 Ry     beta= 0.30
     Davidson diagonalization with overlap
     ethr =  2.56E-09,  avg # of iterations =  4.3

     negative rho (up, down):  3.433E-04 0.000E+00

     total cpu time spent up to now is      396.2 secs

     total energy              =   -2326.92409265 Ry
     estimated scf accuracy    <       0.00000019 Ry

     iteration # 21     ecut=    80.00 Ry     beta= 0.30
     Davidson diagonalization with overlap
     ethr =  2.11E-10,  avg # of iterations =  2.3

     negative rho (up, down):  2.886E-04 0.000E+00

     total cpu time spent up to now is      414.5 secs

     total energy              =   -2326.92409219 Ry
     estimated scf accuracy    <       0.00000012 Ry

     iteration # 22     ecut=    80.00 Ry     beta= 0.30
     Davidson diagonalization with overlap
     ethr =  1.33E-10,  avg # of iterations =  2.4

     negative rho (up, down):  2.487E-04 0.000E+00

     total cpu time spent up to now is      434.5 secs

     total energy              =   -2326.92409273 Ry
     estimated scf accuracy    <       0.00000005 Ry

     iteration # 23     ecut=    80.00 Ry     beta= 0.30
     Davidson diagonalization with overlap
     ethr =  5.15E-11,  avg # of iterations =  1.5

     negative rho (up, down):  2.214E-04 0.000E+00

     total cpu time spent up to now is      451.9 secs

     total energy              =   -2326.92409330 Ry
     estimated scf accuracy    <       0.00000003 Ry

     iteration # 24     ecut=    80.00 Ry     beta= 0.30
     Davidson diagonalization with overlap
     ethr =  2.82E-11,  avg # of iterations =  2.6

     negative rho (up, down):  2.147E-04 0.000E+00

     total cpu time spent up to now is      472.4 secs

     End of self-consistent calculation

          k = 0.0000 0.0000 0.0000 ( 37787 PWs)   bands (ev):

   -61.8998 -61.8989 -48.2964 -48.2964 -48.2948 -48.2948 -48.2944 -48.2944
   -48.2930 -48.2930 -48.2511 -48.2511 -48.2496 -48.2496 -48.2489 -48.2489
   -48.2475 -48.2475 -48.2325 -48.2310 -48.2301 -48.2289 -36.0183 -36.0172
   -35.9029 -35.9029 -35.9016 -35.9016 -15.2972 -15.2937 -14.4789 -14.4771
    -6.4458  -6.4323  -3.3754  -3.3642  -3.3642  -3.3581  -3.3581  -3.3084
    -1.6235  -1.5665  -1.0680  -1.0679  -1.0651  -1.0650   0.2263   0.2263
     0.2291   0.2291   2.9449   2.9449   2.9471   2.9471   2.9963

          k = 0.0000 0.0722 0.0000 ( 37755 PWs)   bands (ev):

   -61.8989 -61.8979 -48.2964 -48.2962 -48.2948 -48.2946 -48.2944 -48.2942
   -48.2930 -48.2928 -48.2512 -48.2511 -48.2496 -48.2496 -48.2489 -48.2489
   -48.2476 -48.2476 -48.2324 -48.2309 -48.2300 -48.2288 -36.0160 -36.0149
   -35.9135 -35.9122 -35.9054 -35.9040 -15.2404 -15.2369 -14.4494 -14.4476
    -6.3681  -6.3546  -3.8479  -3.8235  -3.3322  -3.3261  -2.9576  -2.9162
    -1.6557  -1.6100  -1.2596  -1.2529  -1.2149  -1.2118   0.1119   0.1255
     0.3393   0.3418   2.5984   2.6356   2.8963   2.8984   3.1406

          k = 0.0000 0.1443 0.0000 ( 37697 PWs)   bands (ev):

   -61.8961 -61.8952 -48.2963 -48.2956 -48.2948 -48.2944 -48.2941 -48.2937
   -48.2930 -48.2923 -48.2514 -48.2512 -48.2498 -48.2497 -48.2491 -48.2489
   -48.2478 -48.2476 -48.2322 -48.2307 -48.2297 -48.2285 -36.0097 -36.0086
   -35.9437 -35.9423 -35.9123 -35.9109 -15.0740 -15.0706 -14.3632 -14.3613
    -6.1428  -6.1293  -4.3295  -4.3119  -3.2569  -3.2508  -2.7356  -2.6998
    -2.0857  -2.0737  -1.5023  -1.4988  -1.4780  -1.4423  -0.0169   0.0140
     0.5297   0.5316   1.9915   2.0555   2.7965   2.7984   3.4296

          k = 0.0000 0.2165 0.0000 ( 37653 PWs)   bands (ev):

   -61.8920 -61.8911 -48.2963 -48.2948 -48.2947 -48.2944 -48.2933 -48.2930
   -48.2929 -48.2915 -48.2516 -48.2513 -48.2501 -48.2498 -48.2493 -48.2490
   -48.2480 -48.2477 -48.2318 -48.2303 -48.2294 -48.2281 -36.0004 -35.9994
   -35.9881 -35.9868 -35.9227 -35.9213 -14.8111 -14.8077 -14.2268 -14.2248
    -5.8019  -5.7887  -4.7562  -4.7433  -3.2616  -3.2573  -3.2052  -3.1992
    -2.4548  -2.4222  -1.7259  -1.7222  -1.5733  -1.5480  -0.0530  -0.0139
     0.6361   0.6374   1.6118   1.7099   2.7309   2.7329   3.8053

          k = 0.0000 0.2887 0.0000 ( 37721 PWs)   bands (ev):

   -61.8872 -61.8862 -48.2963 -48.2947 -48.2943 -48.2940 -48.2929 -48.2924
   -48.2920 -48.2906 -48.2519 -48.2514 -48.2504 -48.2499 -48.2496 -48.2491
   -48.2482 -48.2478 -48.2313 -48.2298 -48.2289 -48.2277 -36.0412 -36.0398
   -35.9885 -35.9875 -35.9349 -35.9335 -14.4779 -14.4746 -14.0490 -14.0467
    -5.4891  -5.4782  -4.9950  -4.9842  -4.2830  -4.2794  -3.2595  -3.2539
    -2.6346  -2.6119  -1.8195  -1.8065  -1.7694  -1.7654   0.0266   0.0681
     0.6410   0.6421   1.7015   1.8305   2.7320   2.7342   4.2526

          k = 0.0000 0.3608 0.0000 ( 37749 PWs)   bands (ev):

   -61.8823 -61.8814 -48.2963 -48.2947 -48.2943 -48.2931 -48.2929 -48.2915
   -48.2911 -48.2897 -48.2523 -48.2515 -48.2508 -48.2500 -48.2498 -48.2492
   -48.2485 -48.2479 -48.2309 -48.2294 -48.2285 -48.2272 -36.0932 -36.0917
   -35.9772 -35.9762 -35.9470 -35.9456 -14.1296 -14.1263 -13.8295 -13.8270
    -5.6032  -5.5970  -5.2404  -5.2368  -4.7309  -4.7204  -3.4081  -3.4026
    -2.9893  -2.9763  -2.0828  -2.0735  -1.6640  -1.6600   0.2893   0.3250
     0.6177   0.6190   2.1124   2.2551   2.7685   2.7710   4.7380

          k = 0.0000 0.4330 0.0000 ( 37785 PWs)   bands (ev):

   -61.8782 -61.8773 -48.2963 -48.2947 -48.2943 -48.2929 -48.2923 -48.2907
   -48.2903 -48.2889 -48.2526 -48.2516 -48.2511 -48.2501 -48.2500 -48.2493
   -48.2487 -48.2480 -48.2305 -48.2290 -48.2281 -48.2268 -36.1369 -36.1354
   -35.9676 -35.9665 -35.9573 -35.9559 -13.8657 -13.8623 -13.5506 -13.5480
    -6.2026  -6.1987  -5.5812  -5.5758  -4.5387  -4.5330  -3.5672  -3.5619
    -3.2425  -3.2311  -2.2546  -2.2482  -1.5301  -1.5265   0.6321   0.6338
     0.6602   0.6852   2.6346   2.7641   2.8050   2.8078   5.0024

          k = 0.0000 0.5052 0.0000 ( 37822 PWs)   bands (ev):

   -61.8754 -61.8745 -48.2963 -48.2947 -48.2942 -48.2928 -48.2918 -48.2902
   -48.2898 -48.2884 -48.2528 -48.2517 -48.2513 -48.2502 -48.2501 -48.2493
   -48.2488 -48.2480 -48.2303 -48.2287 -48.2278 -48.2266 -36.1659 -36.1644
   -35.9642 -35.9628 -35.9611 -35.9601 -13.7205 -13.7169 -13.2888 -13.2862
    -6.7601  -6.7563  -5.6018  -5.5981  -4.7047  -4.7012  -3.6793  -3.6740
    -3.1213  -3.1115  -2.3812  -2.3776  -1.4427  -1.4395   0.6810   0.6833
     1.0079   1.0214   2.8275   2.8306   3.1068   3.1896   4.6172

          k = 0.0000-0.5774 0.0000 ( 37832 PWs)   bands (ev):

   -61.8744 -61.8735 -48.2963 -48.2947 -48.2942 -48.2928 -48.2916 -48.2900
   -48.2897 -48.2883 -48.2529 -48.2517 -48.2513 -48.2502 -48.2502 -48.2494
   -48.2488 -48.2480 -48.2302 -48.2286 -48.2277 -48.2265 -36.1761 -36.1746
   -35.9666 -35.9652 -35.9588 -35.9578 -13.6730 -13.6693 -13.1822 -13.1797
    -6.9654  -6.9615  -5.5717  -5.5694  -4.8475  -4.8438  -3.7189  -3.7137
    -2.9911  -2.9839  -2.4492  -2.4465  -1.4150  -1.4118   0.7085   0.7110
     1.1590   1.1645   2.8348   2.8379   3.3510   3.3891   4.2977

          k = 0.0625 0.1083 0.0000 ( 37709 PWs)   bands (ev):

   -61.8970 -61.8961 -48.2963 -48.2958 -48.2947 -48.2944 -48.2943 -48.2939
   -48.2930 -48.2925 -48.2513 -48.2512 -48.2498 -48.2496 -48.2490 -48.2489
   -48.2477 -48.2476 -48.2323 -48.2307 -48.2298 -48.2286 -36.0117 -36.0106
   -35.9336 -35.9322 -35.9104 -35.9090 -15.1288 -15.1253 -14.3916 -14.3897
    -6.2161  -6.2026  -4.2016  -4.1823  -3.2857  -3.2796  -2.7585  -2.7179
    -1.8859  -1.8728  -1.5042  -1.4982  -1.3990  -1.3694   0.0460   0.0727
     0.4295   0.4314   2.2228   2.2792   2.7505   2.7549   3.3479

          k = 0.0625 0.1804 0.0000 ( 37703 PWs)   bands (ev):

   -61.8936 -61.8927 -48.2963 -48.2952 -48.2947 -48.2943 -48.2936 -48.2932
   -48.2929 -48.2918 -48.2515 -48.2513 -48.2500 -48.2497 -48.2492 -48.2490
   -48.2479 -48.2477 -48.2319 -48.2304 -48.2295 -48.2283 -36.0038 -36.0027
   -35.9702 -35.9688 -35.9198 -35.9185 -14.9137 -14.9103 -14.2805 -14.2785
    -5.9281  -5.9146  -4.6124  -4.5980  -3.2800  -3.2741  -2.8223  -2.8052
    -2.4632  -2.4486  -1.7621  -1.7500  -1.4320  -1.4011   0.0409   0.0748
     0.4274   0.4333   1.8911   1.9705   2.5758   2.5817   3.6719

          k = 0.0625 0.2526 0.0000 ( 37702 PWs)   bands (ev):

   -61.8891 -61.8882 -48.2963 -48.2947 -48.2944 -48.2943 -48.2929 -48.2928
   -48.2924 -48.2910 -48.2518 -48.2514 -48.2503 -48.2498 -48.2494 -48.2491
   -48.2481 -48.2478 -48.2315 -48.2300 -48.2291 -48.2279 -36.0179 -36.0165
   -35.9931 -35.9921 -35.9322 -35.9309 -14.6136 -14.6103 -14.1244 -14.1222
    -5.5601  -5.5474  -4.9547  -4.9437  -3.8387  -3.8350  -3.2261  -3.2206
    -2.6107  -2.5934  -1.9708  -1.9608  -1.4567  -1.4380  -0.0226   0.0100
     0.5004   0.5180   1.7755   1.8698   2.5402   2.5586   4.0801

          k = 0.0625 0.3248 0.0000 ( 37734 PWs)   bands (ev):

   -61.8842 -61.8833 -48.2962 -48.2946 -48.2942 -48.2935 -48.2928 -48.2919
   -48.2915 -48.2901 -48.2521 -48.2515 -48.2506 -48.2500 -48.2497 -48.2492
   -48.2484 -48.2479 -48.2311 -48.2295 -48.2286 -48.2274 -36.0689 -36.0674
   -35.9819 -35.9808 -35.9456 -35.9442 -14.2652 -14.2619 -13.9309 -13.9284
    -5.4505  -5.4422  -4.9300  -4.9212  -4.7837  -4.7788  -3.4653  -3.4603
    -2.7333  -2.7211  -2.2828  -2.2786  -1.4414  -1.4312   0.0292   0.0596
     0.6508   0.6648   1.9096   2.0068   2.6212   2.6619   4.5551

          k = 0.0625 0.3969 0.0000 ( 37770 PWs)   bands (ev):

   -61.8798 -61.8788 -48.2962 -48.2946 -48.2942 -48.2928 -48.2927 -48.2911
   -48.2907 -48.2893 -48.2524 -48.2516 -48.2509 -48.2501 -48.2499 -48.2493
   -48.2486 -48.2480 -48.2307 -48.2291 -48.2282 -48.2270 -36.1156 -36.1141
   -35.9714 -35.9704 -35.9579 -35.9565 -13.9490 -13.9457 -13.6867 -13.6841
    -5.8184  -5.8143  -5.4851  -5.4796  -4.5644  -4.5558  -3.7104  -3.7055
    -2.9947  -2.9871  -2.5010  -2.4969  -1.3707  -1.3650   0.2318   0.2520
     0.8092   0.8205   2.2141   2.2781   2.7747   2.8497   5.0108

          k = 0.0625 0.4691 0.0000 ( 37798 PWs)   bands (ev):

   -61.8763 -61.8754 -48.2962 -48.2946 -48.2941 -48.2927 -48.2921 -48.2905
   -48.2901 -48.2887 -48.2527 -48.2517 -48.2512 -48.2502 -48.2501 -48.2493
   -48.2487 -48.2480 -48.2303 -48.2288 -48.2279 -48.2267 -36.1511 -36.1496
   -35.9677 -35.9663 -35.9630 -35.9620 -13.7515 -13.7481 -13.4010 -13.3985
    -6.4734  -6.4695  -5.5911  -5.5866  -4.5564  -4.5526  -3.8042  -3.7991
    -3.1096  -3.1018  -2.6059  -2.6028  -1.3292  -1.3260   0.4799   0.4892
     0.9921   1.0019   2.4659   2.4844   3.0232   3.1092   5.0227

          k = 0.0625 0.5413 0.0000 ( 37791 PWs)   bands (ev):

   -61.8744 -61.8735 -48.2962 -48.2946 -48.2941 -48.2927 -48.2917 -48.2901
   -48.2898 -48.2884 -48.2528 -48.2518 -48.2513 -48.2502 -48.2501 -48.2494
   -48.2488 -48.2481 -48.2302 -48.2286 -48.2277 -48.2265 -36.1703 -36.1688
   -35.9726 -35.9712 -35.9588 -35.9578 -13.6584 -13.6547 -13.2059 -13.2033
    -6.8602  -6.8564  -5.5729  -5.5701  -4.7660  -4.7624  -3.8215  -3.8167
    -2.9957  -2.9890  -2.6778  -2.6757  -1.3299  -1.3275   0.6637   0.6668
     1.1235   1.1297   2.5724   2.5761   3.2860   3.3339   4.5834

          k = 0.1250 0.2165 0.0000 ( 37731 PWs)   bands (ev):

   -61.8898 -61.8889 -48.2962 -48.2946 -48.2946 -48.2943 -48.2930 -48.2928
   -48.2926 -48.2912 -48.2518 -48.2514 -48.2502 -48.2498 -48.2494 -48.2491
   -48.2481 -48.2478 -48.2316 -48.2301 -48.2292 -48.2279 -36.0081 -36.0067
   -35.9950 -35.9939 -35.9328 -35.9314 -14.6601 -14.6568 -14.1503 -14.1481
    -5.5911  -5.5779  -4.9224  -4.9112  -3.6971  -3.6926  -3.0184  -3.0050
    -2.8670  -2.8628  -1.9429  -1.9251  -1.3399  -1.3130   0.0417   0.0566
     0.2909   0.3278   2.1015   2.1808   2.1825   2.2109   4.0263

          k = 0.1250 0.2887 0.0000 ( 37723 PWs)   bands (ev):

   -61.8853 -61.8844 -48.2961 -48.2945 -48.2941 -48.2938 -48.2927 -48.2922
   -48.2919 -48.2905 -48.2521 -48.2515 -48.2505 -48.2499 -48.2496 -48.2492
   -48.2483 -48.2479 -48.2312 -48.2296 -48.2287 -48.2275 -36.0516 -36.0502
   -35.9846 -35.9836 -35.9487 -35.9474 -14.3377 -14.3344 -13.9830 -13.9806
    -5.2754  -5.2655  -5.0867  -5.0757  -4.4649  -4.4611  -3.4664  -3.4602
    -2.9569  -2.9527  -2.2062  -2.1966  -1.2095  -1.1896  -0.1758  -0.1519
     0.5868   0.6171   1.8591   1.8792   2.4121   2.5211   4.4654

          k = 0.1250 0.3608 0.0000 ( 37761 PWs)   bands (ev):

   -61.8808 -61.8799 -48.2960 -48.2944 -48.2940 -48.2931 -48.2926 -48.2915
   -48.2911 -48.2897 -48.2523 -48.2516 -48.2508 -48.2501 -48.2498 -48.2493
   -48.2485 -48.2480 -48.2308 -48.2292 -48.2283 -48.2271 -36.0945 -36.0931
   -35.9748 -35.9737 -35.9645 -35.9631 -13.9975 -13.9943 -13.7821 -13.7795
    -5.4761  -5.4701  -5.2649  -5.2612  -4.6726  -4.6617  -3.8534  -3.8487
    -3.0561  -3.0525  -2.6336  -2.6292  -1.0744  -1.0617  -0.1399  -0.1172
     0.8762   0.8940   1.7753   1.7991   2.7181   2.8322   4.9533

          k = 0.1250 0.4330 0.0000 ( 37768 PWs)   bands (ev):

   -61.8770 -61.8761 -48.2958 -48.2943 -48.2938 -48.2925 -48.2924 -48.2909
   -48.2905 -48.2891 -48.2526 -48.2517 -48.2511 -48.2502 -48.2500 -48.2494
   -48.2487 -48.2481 -48.2304 -48.2289 -48.2280 -48.2267 -36.1306 -36.1291
   -35.9798 -35.9784 -35.9645 -35.9635 -13.7475 -13.7442 -13.5190 -13.5163
    -6.0648  -6.0610  -5.5247  -5.5196  -4.3993  -4.3936  -4.0809  -4.0753
    -3.1675  -3.1646  -2.9819  -2.9777  -1.0390  -1.0322   0.1071   0.1235
     1.0721   1.0801   1.8874   1.9076   3.0083   3.1025   5.2951

          k = 0.1250 0.5052 0.0000 ( 37794 PWs)   bands (ev):

   -61.8745 -61.8735 -48.2958 -48.2942 -48.2937 -48.2923 -48.2921 -48.2905
   -48.2901 -48.2887 -48.2527 -48.2518 -48.2512 -48.2503 -48.2501 -48.2494
   -48.2488 -48.2481 -48.2302 -48.2286 -48.2277 -48.2265 -36.1545 -36.1530
   -35.9889 -35.9875 -35.9589 -35.9579 -13.6157 -13.6122 -13.2700 -13.2673
    -6.5680  -6.5643  -5.5573  -5.5537  -4.5708  -4.5672  -4.0321  -4.0274
    -3.2486  -3.2463  -3.0461  -3.0411  -1.0946  -1.0909   0.4492   0.4583
     1.1237   1.1275   2.0592   2.0708   3.2181   3.2710   5.1440

          k = 0.1250 0.5774 0.0000 ( 37780 PWs)   bands (ev):

   -61.8736 -61.8726 -48.2958 -48.2942 -48.2937 -48.2923 -48.2919 -48.2903
   -48.2900 -48.2886 -48.2528 -48.2519 -48.2513 -48.2503 -48.2501 -48.2495
   -48.2488 -48.2481 -48.2301 -48.2286 -48.2277 -48.2264 -36.1628 -36.1613
   -35.9921 -35.9907 -35.9568 -35.9558 -13.5720 -13.5684 -13.1707 -13.1680
    -6.7516  -6.7478  -5.5490  -5.5463  -4.6854  -4.6817  -4.0282  -4.0240
    -3.2778  -3.2756  -3.0002  -2.9960  -1.1333  -1.1303   0.6546   0.6571
     1.0751   1.0789   2.1471   2.1499   3.2951   3.3253   4.9477

          k = 0.1875 0.3248 0.0000 ( 37725 PWs)   bands (ev):

   -61.8812 -61.8803 -48.2958 -48.2942 -48.2938 -48.2933 -48.2924 -48.2917
   -48.2913 -48.2899 -48.2523 -48.2516 -48.2508 -48.2501 -48.2498 -48.2493
   -48.2484 -48.2480 -48.2308 -48.2293 -48.2284 -48.2271 -36.0850 -36.0836
   -35.9769 -35.9757 -35.9681 -35.9668 -14.0128 -14.0097 -13.8168 -13.8141
    -5.3443  -5.3373  -5.0962  -5.0924  -4.7617  -4.7506  -3.8569  -3.8518
    -3.3368  -3.3328  -2.5139  -2.5102  -0.9089  -0.8914  -0.3192  -0.2970
     0.8715   0.8946   1.5970   1.6057   2.7009   2.8256   4.9260

          k = 0.1875 0.3969 0.0000 ( 37753 PWs)   bands (ev):

   -61.8774 -61.8765 -48.2955 -48.2940 -48.2935 -48.2928 -48.2921 -48.2912
   -48.2909 -48.2895 -48.2525 -48.2517 -48.2510 -48.2502 -48.2499 -48.2494
   -48.2486 -48.2481 -48.2304 -48.2289 -48.2280 -48.2268 -36.1138 -36.1123
   -35.9921 -35.9907 -35.9654 -35.9644 -13.7099 -13.7067 -13.6194 -13.6165
    -5.6959  -5.6921  -5.4473  -5.4419  -4.3601  -4.3509  -4.2083  -4.2040
    -3.6624  -3.6589  -2.9116  -2.9099  -0.6990  -0.6878  -0.2486  -0.2312
     1.0990   1.1111   1.5126   1.5279   3.0080   3.1069   5.3800

          k = 0.1875 0.4691 0.0000 ( 37759 PWs)   bands (ev):

   -61.8745 -61.8735 -48.2953 -48.2937 -48.2933 -48.2925 -48.2919 -48.2909
   -48.2905 -48.2891 -48.2526 -48.2519 -48.2511 -48.2503 -48.2501 -48.2495
   -48.2488 -48.2482 -48.2302 -48.2286 -48.2277 -48.2265 -36.1347 -36.1332
   -36.0092 -36.0078 -35.9589 -35.9579 -13.5495 -13.5461 -13.3571 -13.3543
    -6.1802  -6.1764  -5.5142  -5.5100  -4.4299  -4.4260  -4.1221  -4.1165
    -3.8878  -3.8849  -3.1817  -3.1795  -0.7478  -0.7418   0.0969   0.1077
     1.1437   1.1479   1.6617   1.6804   3.1987   3.2505   5.5341

          k = 0.1875 0.5413 0.0000 ( 37793 PWs)   bands (ev):

   -61.8729 -61.8720 -48.2952 -48.2936 -48.2932 -48.2923 -48.2917 -48.2907
   -48.2904 -48.2890 -48.2527 -48.2520 -48.2512 -48.2505 -48.2502 -48.2495
   -48.2488 -48.2482 -48.2300 -48.2285 -48.2276 -48.2264 -36.1456 -36.1441
   -36.0188 -36.0174 -35.9553 -35.9543 -13.4719 -13.4684 -13.1876 -13.1848
    -6.4575  -6.4538  -5.5424  -5.5390  -4.5234  -4.5195  -4.1639  -4.1602
    -3.9623  -3.9600  -3.2029  -3.2003  -0.8346  -0.8307   0.4673   0.4716
     0.9973   0.9997   1.8765   1.8879   3.2109   3.2332   5.5024

          k = 0.2500 0.4330 0.0000 ( 37711 PWs)   bands (ev):

   -61.8745 -61.8735 -48.2950 -48.2935 -48.2931 -48.2927 -48.2916 -48.2911
   -48.2908 -48.2894 -48.2526 -48.2519 -48.2511 -48.2504 -48.2501 -48.2495
   -48.2488 -48.2482 -48.2302 -48.2286 -48.2277 -48.2265 -36.1242 -36.1228
   -36.0198 -36.0184 -35.9589 -35.9579 -13.4877 -13.4844 -13.4274 -13.4245
    -5.9596  -5.9559  -5.4827  -5.4782  -4.4117  -4.4076  -4.2511  -4.2479
    -4.0483  -4.0415  -3.2772  -3.2758  -0.3412  -0.3291  -0.3144  -0.3096
     1.1376   1.1443   1.5358   1.5561   3.1982   3.2486   5.6963

          k = 0.2500 0.5052 0.0000 ( 37776 PWs)   bands (ev):

   -61.8725 -61.8716 -48.2947 -48.2931 -48.2929 -48.2925 -48.2914 -48.2910
   -48.2908 -48.2894 -48.2526 -48.2520 -48.2511 -48.2505 -48.2502 -48.2496
   -48.2489 -48.2482 -48.2300 -48.2285 -48.2276 -48.2263 -36.1268 -36.1253
   -36.0429 -36.0414 -35.9545 -35.9535 -13.3780 -13.3746 -13.2404 -13.2375
    -6.1074  -6.1037  -5.5341  -5.5302  -4.6707  -4.6671  -4.3886  -4.3851
    -3.9729  -3.9693  -3.5150  -3.5133  -0.4391  -0.4339   0.0578   0.0611
     0.9607   0.9628   1.8262   1.8487   3.1481   3.1587   5.6870

          k = 0.2500 0.5774 0.0000 ( 37791 PWs)   bands (ev):

   -61.8718 -61.8709 -48.2945 -48.2929 -48.2929 -48.2924 -48.2913 -48.2909
   -48.2908 -48.2894 -48.2526 -48.2521 -48.2511 -48.2506 -48.2502 -48.2496
   -48.2489 -48.2482 -48.2300 -48.2284 -48.2275 -48.2263 -36.1262 -36.1247
   -36.0524 -36.0510 -35.9529 -35.9519 -13.3393 -13.3359 -13.1705 -13.1676
    -6.1503  -6.1466  -5.5643  -5.5605  -4.8237  -4.8201  -4.2087  -4.2061
    -4.1884  -4.1862  -3.5157  -3.5139  -0.4893  -0.4854   0.3172   0.3186
     0.7536   0.7560   2.0510   2.0625   3.0131   3.0196   5.6310

          k = 0.3125 0.5413 0.0000 ( 37789 PWs)   bands (ev):

   -61.8714 -61.8705 -48.2940 -48.2932 -48.2925 -48.2920 -48.2916 -48.2912
   -48.2905 -48.2898 -48.2526 -48.2522 -48.2510 -48.2507 -48.2503 -48.2496
   -48.2490 -48.2482 -48.2299 -48.2284 -48.2275 -48.2263 -36.1087 -36.1073
   -36.0749 -36.0734 -35.9521 -35.9511 -13.2599 -13.2565 -13.1979 -13.1949
    -5.8460  -5.8424  -5.5740  -5.5701  -5.2632  -5.2598  -4.2219  -4.2188
    -3.8839  -3.8819  -3.8797  -3.8785  -0.1523  -0.1472   0.0261   0.0289
     0.6542   0.6565   2.2545   2.2747   2.8245   2.8348   5.5851

     the Fermi energy is    -0.3001 ev

!    total energy              =   -2326.92409309 Ry
     total all-electron energy =    -35628.671922 Ry
     estimated scf accuracy    <          2.3E-09 Ry
     smearing contrib. (-TS)   =       0.00088658 Ry
     internal energy E=F+TS    =   -2326.92497968 Ry

     The total energy is F=E-TS. E is the sum of the following terms:
     one-electron contribution =  -23724.24193011 Ry
     hartree contribution      =   11850.33793904 Ry
     xc contribution           =    -152.42384458 Ry
     ewald contribution        =   10709.91727087 Ry
     one-center paw contrib.   =   -1010.51441489 Ry

     convergence has been achieved in  24 iterations

     Writing all to output data dir ./tmp/cleave_014/mose2_cleave_014.save/ :
     XML data file, charge density, pseudopotentials, collected wavefunctions

     init_run     :     11.40s CPU     11.74s WALL (       1 calls)
     electrons    :    451.17s CPU    460.55s WALL (       1 calls)

     Called by init_run:
     wfcinit      :      5.23s CPU      5.31s WALL (       1 calls)
     potinit      :      5.49s CPU      5.67s WALL (       1 calls)
     hinit0       :      0.05s CPU      0.06s WALL (       1 calls)

     Called by electrons:
     c_bands      :    374.10s CPU    377.58s WALL (      25 calls)
     sum_band     :     50.75s CPU     53.39s WALL (      25 calls)
     v_of_rho     :     15.00s CPU     16.01s WALL (      25 calls)
     newd         :      9.32s CPU     11.70s WALL (      25 calls)
     PAW_pot      :      1.57s CPU      1.62s WALL (      25 calls)
     mix_rho      :      6.08s CPU      6.12s WALL (      25 calls)
     vdW_kernel   :      5.04s CPU      5.18s WALL (       1 calls)

     Called by c_bands:
     init_us_2    :      3.22s CPU      3.24s WALL (    1530 calls)
     cegterg      :    365.75s CPU    369.04s WALL (     750 calls)

     Called by *egterg:
     cdiaghg      :     11.20s CPU     11.22s WALL (    3254 calls)
     h_psi        :    161.45s CPU    162.62s WALL (    3314 calls)
     s_psi        :     33.07s CPU     33.11s WALL (    3314 calls)
     g_psi        :      0.59s CPU      0.59s WALL (    2534 calls)

     Called by h_psi:
     h_psi:calbec :     47.19s CPU     47.72s WALL (    3314 calls)
     vloc_psi     :     72.63s CPU     73.21s WALL (    3314 calls)
                                        0.00s GPU  (    3314 calls)
     add_vuspsi   :     41.03s CPU     41.08s WALL (    3314 calls)

     General routines
     calbec       :     67.95s CPU     68.69s WALL (    4064 calls)
     fft          :      5.96s CPU      6.07s WALL (    1574 calls)
     ffts         :      2.16s CPU      2.17s WALL (    2879 calls)
     fftw         :     80.22s CPU     80.88s WALL (  223728 calls)
     interpolate  :      0.11s CPU      0.11s WALL (      25 calls)

     Parallel routines

     PWSCF        :   7m43.07s CPU   7m52.97s WALL


   This run was terminated on:  10:44:32  20Jun2026            

=------------------------------------------------------------------------------=
   JOB DONE.
=------------------------------------------------------------------------------=
Note: The following floating-point exceptions are signalling: IEEE_UNDERFLOW_FLAG IEEE_DENORMAL
Note: The following floating-point exceptions are signalling: IEEE_UNDERFLOW_FLAG IEEE_DENORMAL
Note: The following floating-point exceptions are signalling: IEEE_UNDERFLOW_FLAG IEEE_DENORMAL
Note: The following floating-point exceptions are signalling: IEEE_UNDERFLOW_FLAG IEEE_DENORMAL
Note: The following floating-point exceptions are signalling: IEEE_UNDERFLOW_FLAG IEEE_DENORMAL
Note: The following floating-point exceptions are signalling: IEEE_UNDERFLOW_FLAG IEEE_DENORMAL
Note: The following floating-point exceptions are signalling: IEEE_UNDERFLOW_FLAG IEEE_DENORMAL
Note: The following floating-point exceptions are signalling: IEEE_UNDERFLOW_FLAG IEEE_DENORMAL
Note: The following floating-point exceptions are signalling: IEEE_UNDERFLOW_FLAG IEEE_DENORMAL
Note: The following floating-point exceptions are signalling: IEEE_UNDERFLOW_FLAG IEEE_DENORMAL
Note: The following floating-point exceptions are signalling: IEEE_UNDERFLOW_FLAG IEEE_DENORMAL
Note: The following floating-point exceptions are signalling: IEEE_UNDERFLOW_FLAG IEEE_DENORMAL
Note: The following floating-point exceptions are signalling: IEEE_UNDERFLOW_FLAG IEEE_DENORMAL
Note: The following floating-point exceptions are signalling: IEEE_UNDERFLOW_FLAG IEEE_DENORMAL
Note: The following floating-point exceptions are signalling: IEEE_UNDERFLOW_FLAG IEEE_DENORMAL
Note: The following floating-point exceptions are signalling: IEEE_UNDERFLOW_FLAG IEEE_DENORMAL
Note: The following floating-point exceptions are signalling: IEEE_UNDERFLOW_FLAG IEEE_DENORMAL
Note: The following floating-point exceptions are signalling: IEEE_UNDERFLOW_FLAG IEEE_DENORMAL
Note: The following floating-point exceptions are signalling: IEEE_UNDERFLOW_FLAG IEEE_DENORMAL
Note: The following floating-point exceptions are signalling: IEEE_UNDERFLOW_FLAG IEEE_DENORMAL
Note: The following floating-point exceptions are signalling: IEEE_UNDERFLOW_FLAG IEEE_DENORMAL
Note: The following floating-point exceptions are signalling: IEEE_UNDERFLOW_FLAG IEEE_DENORMAL
Note: The following floating-point exceptions are signalling: IEEE_UNDERFLOW_FLAG IEEE_DENORMAL
Note: The following floating-point exceptions are signalling: IEEE_UNDERFLOW_FLAG IEEE_DENORMAL
