
     Program PWSCF v.7.5 starts on 20Jun2026 at 10:28:52 

     This program is part of the open-source Quantum ESPRESSO suite
     for quantum simulation of materials; please cite
         "P. Giannozzi et al., J. Phys.:Condens. Matter 21 395502 (2009);
         "P. Giannozzi et al., J. Phys.:Condens. Matter 29 465901 (2017);
         "P. Giannozzi et al., J. Chem. Phys. 152 154105 (2020);
          URL http://www.quantum-espresso.org", 
     in publications or presentations arising from this work. More details at
     http://www.quantum-espresso.org/quote

     Parallel version (MPI), running on    24 processors

     MPI processes distributed on     1 nodes
     6363 MiB available memory on the printing compute node when the environment starts

     Waiting for input...
     Reading input from standard input

     Current dimensions of program PWSCF are:
     Max number of different atomic species (ntypx) = 10
     Max number of k-points (npk) =  40000
     Max angular momentum in pseudopotentials (lmaxx) =  4
     file Mo.pbe-spn-kjpaw_psl.1.0.0.UPF: wavefunction(s)  4S 4D renormalized
     file Se.pbe-dn-kjpaw_psl.1.0.0.UPF: wavefunction(s)  4S 4P 3D renormalized

     IMPORTANT: XC functional enforced from input :
     Exchange-correlation= VDW-DF2-B86R
                           (   1   4  26   0   2   0   0)
     Any further DFT definition will be discarded
     Please, verify this is what you really want


     R & G space division:  proc/nbgrp/npool/nimage =      24
     Subspace diagonalization in iterative solution of the eigenvalue problem:
     a serial algorithm will be used


     Parallelization info
     --------------------
     sticks:   dense  smooth     PW     G-vecs:    dense   smooth      PW
     Min          69      35     10                35537    12585    1924
     Max          70      36     11                35620    12648    1981
     Sum        1675     847    241               853823   302525   46513

     Using Slab Decomposition



     bravais-lattice index     =            4
     lattice parameter (alat)  =       6.1794  a.u.
     unit-cell volume          =    3124.5879 (a.u.)^3
     number of atoms/cell      =            6
     number of atomic types    =            2
     number of electrons       =        92.00
     number of Kohn-Sham states=           55
     kinetic-energy cutoff     =      80.0000  Ry
     charge density cutoff     =     640.0000  Ry
     scf convergence threshold =      1.0E-08
     mixing beta               =       0.3000
     number of iterations used =            8  local-TF  mixing
     Exchange-correlation= VDW-DF2-B86R
                           (   1   4  26   0   2   0   0)

     celldm(1)=   6.179404  celldm(2)=   0.000000  celldm(3)=  15.290520
     celldm(4)=   0.000000  celldm(5)=   0.000000  celldm(6)=   0.000000

     crystal axes: (cart. coord. in units of alat)
               a(1) = (   1.000000   0.000000   0.000000 )  
               a(2) = (  -0.500000   0.866025   0.000000 )  
               a(3) = (   0.000000   0.000000  15.290520 )  

     reciprocal axes: (cart. coord. in units 2 pi/alat)
               b(1) = (  1.000000  0.577350 -0.000000 )  
               b(2) = (  0.000000  1.154701  0.000000 )  
               b(3) = (  0.000000 -0.000000  0.065400 )  


     PseudoPot. # 1 for Mo read from file:
     ./pseudo/Mo.pbe-spn-kjpaw_psl.1.0.0.UPF
     MD5 check sum: 4396e0c640fcce5c25f020efccf1ab12
     Pseudo is Projector augmented-wave + core cor, Zval = 14.0
     Generated using &quot;atomic&quot; code by A. Dal Corso  v.6.3
     Shape of augmentation charge: PSQ
     Using radial grid of 1229 points,  6 beta functions with: 
                l(1) =   0
                l(2) =   0
                l(3) =   1
                l(4) =   1
                l(5) =   2
                l(6) =   2
     Q(r) pseudized with 0 coefficients 


     PseudoPot. # 2 for Se read from file:
     ./pseudo/Se.pbe-dn-kjpaw_psl.1.0.0.UPF
     MD5 check sum: ac240dd2bae32a30e0bf3a38df9c8785
     Pseudo is Projector augmented-wave + core cor, Zval = 16.0
     Generated using &quot;atomic&quot; code by A. Dal Corso  v.6.3
     Shape of augmentation charge: PSQ
     Using radial grid of 1211 points,  6 beta functions with: 
                l(1) =   0
                l(2) =   0
                l(3) =   1
                l(4) =   1
                l(5) =   2
                l(6) =   2
     Q(r) pseudized with 0 coefficients 


     atomic species   valence    mass     pseudopotential
     Mo               14.00    95.96000     Mo( 1.00)
     Se               16.00    78.96000     Se( 1.00)

      6 Sym. Ops. (no inversion) found



   Cartesian axes

     site n.     atom                  positions (alat units)
         1        Se     tau(   1) = (  -0.0000005   0.5773506   6.1238532  )
         2        Mo     tau(   2) = (   0.0000000   0.0000000   6.6502752  )
         3        Se     tau(   3) = (   0.5000005   0.2886748   7.1775994  )
         4        Se     tau(   4) = (  -0.0000005   0.5773506   8.9074465  )
         5        Mo     tau(   5) = (   0.5000005   0.2886748   9.4346330  )
         6        Se     tau(   6) = (   0.0000000   0.0000000   9.9617737  )

     number of k points=    30  Methfessel-Paxton smearing, width (Ry)=  0.0200
                       cart. coord. in units 2pi/alat
        k(    1) = (   0.0000000   0.0000000   0.0000000), wk =   0.0078125
        k(    2) = (   0.0000000   0.0721688   0.0000000), wk =   0.0468750
        k(    3) = (   0.0000000   0.1443376   0.0000000), wk =   0.0468750
        k(    4) = (   0.0000000   0.2165064   0.0000000), wk =   0.0468750
        k(    5) = (   0.0000000   0.2886751   0.0000000), wk =   0.0468750
        k(    6) = (   0.0000000   0.3608439   0.0000000), wk =   0.0468750
        k(    7) = (   0.0000000   0.4330127   0.0000000), wk =   0.0468750
        k(    8) = (   0.0000000   0.5051815   0.0000000), wk =   0.0468750
        k(    9) = (   0.0000000  -0.5773503   0.0000000), wk =   0.0234375
        k(   10) = (   0.0625000   0.1082532   0.0000000), wk =   0.0468750
        k(   11) = (   0.0625000   0.1804220   0.0000000), wk =   0.0937500
        k(   12) = (   0.0625000   0.2525907   0.0000000), wk =   0.0937500
        k(   13) = (   0.0625000   0.3247595   0.0000000), wk =   0.0937500
        k(   14) = (   0.0625000   0.3969283   0.0000000), wk =   0.0937500
        k(   15) = (   0.0625000   0.4690971   0.0000000), wk =   0.0937500
        k(   16) = (   0.0625000   0.5412659   0.0000000), wk =   0.0937500
        k(   17) = (   0.1250000   0.2165064   0.0000000), wk =   0.0468750
        k(   18) = (   0.1250000   0.2886751   0.0000000), wk =   0.0937500
        k(   19) = (   0.1250000   0.3608439   0.0000000), wk =   0.0937500
        k(   20) = (   0.1250000   0.4330127   0.0000000), wk =   0.0937500
        k(   21) = (   0.1250000   0.5051815   0.0000000), wk =   0.0937500
        k(   22) = (   0.1250000   0.5773503   0.0000000), wk =   0.0468750
        k(   23) = (   0.1875000   0.3247595   0.0000000), wk =   0.0468750
        k(   24) = (   0.1875000   0.3969283   0.0000000), wk =   0.0937500
        k(   25) = (   0.1875000   0.4690971   0.0000000), wk =   0.0937500
        k(   26) = (   0.1875000   0.5412659   0.0000000), wk =   0.0937500
        k(   27) = (   0.2500000   0.4330127   0.0000000), wk =   0.0468750
        k(   28) = (   0.2500000   0.5051815   0.0000000), wk =   0.0937500
        k(   29) = (   0.2500000   0.5773503   0.0000000), wk =   0.0468750
        k(   30) = (   0.3125000   0.5412659   0.0000000), wk =   0.0468750

     Dense  grid:   853823 G-vectors     FFT dimensions: (  50,  50, 768)

     Smooth grid:   302525 G-vectors     FFT dimensions: (  36,  36, 540)

     Estimated max dynamical RAM per process >     171.88 MB

     Estimated total dynamical RAM >       4.03 GB

     Initial potential from superposition of free atoms

     starting charge      91.9979, renormalised to      92.0000

     negative rho (up, down):  1.768E-04 0.000E+00


     %%%%%%%%%%%%%%%%%%%%%%%%%%%%%%%%%%%%%%%%%%%%%%%%%%%%%%%%%%%%%%%%%%%%%%%%
     %                                                                      %
     % You are using vdW-DF, which was implemented by the Thonhauser group. %
     % Please cite the following two papers that made this development      %
     % possible and the two reviews that describe the various versions:     %
     %                                                                      %
     %   T. Thonhauser et al., PRL 115, 136402 (2015).                      %
     %   T. Thonhauser et al., PRB 76, 125112 (2007).                       %
     %   K. Berland et al., Rep. Prog. Phys. 78, 066501 (2015).             %
     %   D.C. Langreth et al., J. Phys.: Condens. Matter 21, 084203 (2009). %
     %                                                                      %
     % If you are calculating stress with vdW-DF, please also cite:         %
     %                                                                      %
     %   R. Sabatini et al., J. Phys.: Condens. Matter 24, 424209 (2012).   %
     %                                                                      %
     %%%%%%%%%%%%%%%%%%%%%%%%%%%%%%%%%%%%%%%%%%%%%%%%%%%%%%%%%%%%%%%%%%%%%%%%

     %%%%%%%%%%%%%%%%%%%%%%%%%%%%%%%%%%%%%%%%%%%%%%%%%%%%%%%%%%%%%%%%%%%%%%%%
     %                                                                      %
     %  vdW-DF NEWS:                                                        %
     %                                                                      %
     %  * vdW-DF3 is now available. DOI: 10.1021/acs.jctc.0c00471           %
     %    use with input_dft = 'vdW-DF3-opt1' or 'vdW-DF3-opt2'             %
     %                                                                      %
     %  * Unscreened and range-separated hybrid vdW-DF-cx functionals       %
     %    DOI: 10.1063/1.4986522 and 10.1088/1361-648X/ac2ad2               %
     %    use with input_dft = 'vdW-DF-cx0'    and 'vdW-DF-ahcx'            %
     %  * Unscreened and range-separated hybrid vdW-DF2-b86r functionals    %
     %    DOI: 10.1063/1.4986522 and DOI: 10.1103/PhysRevX.12.041003        %
     %    use with input_dft = 'vdW-DF2-br0' and 'vdW-DF2-ahbr'             %
     %                                                                      %
     %%%%%%%%%%%%%%%%%%%%%%%%%%%%%%%%%%%%%%%%%%%%%%%%%%%%%%%%%%%%%%%%%%%%%%%%


     Starting wfcs are   56 randomized atomic wfcs
     Checking if some PAW data can be deallocated... 

     total cpu time spent up to now is       12.1 secs

     per-process dynamical memory:    79.7 Mb

     Self-consistent Calculation

     iteration #  1     ecut=    80.00 Ry     beta= 0.30
     Davidson diagonalization with overlap
     ethr =  1.00E-02,  avg # of iterations =  4.4

     Threshold (ethr) on eigenvalues was too large:
     Diagonalizing with lowered threshold

     Davidson diagonalization with overlap
     ethr =  4.47E-04,  avg # of iterations =  2.1

     negative rho (up, down):  5.139E-05 0.000E+00

     total cpu time spent up to now is       50.4 secs

     total energy              =   -2326.96439342 Ry
     estimated scf accuracy    <       0.45823787 Ry

     iteration #  2     ecut=    80.00 Ry     beta= 0.30
     Davidson diagonalization with overlap
     ethr =  4.98E-04,  avg # of iterations =  1.0

     negative rho (up, down):  3.781E-05 0.000E+00

     total cpu time spent up to now is       66.0 secs

     total energy              =   -2326.91852691 Ry
     estimated scf accuracy    <       0.23894912 Ry

     iteration #  3     ecut=    80.00 Ry     beta= 0.30
     Davidson diagonalization with overlap
     ethr =  2.60E-04,  avg # of iterations =  2.6

     negative rho (up, down):  1.636E-05 0.000E+00

     total cpu time spent up to now is       84.6 secs

     total energy              =   -2326.92517941 Ry
     estimated scf accuracy    <       0.03080647 Ry

     iteration #  4     ecut=    80.00 Ry     beta= 0.30
     Davidson diagonalization with overlap
     c_bands:  1 eigenvalues not converged
     ethr =  3.35E-05,  avg # of iterations =  8.5

     negative rho (up, down):  7.447E-06 0.000E+00

     total cpu time spent up to now is      106.5 secs

     total energy              =   -2326.92537290 Ry
     estimated scf accuracy    <       0.00917019 Ry

     iteration #  5     ecut=    80.00 Ry     beta= 0.30
     Davidson diagonalization with overlap
     ethr =  9.97E-06,  avg # of iterations =  5.1

     negative rho (up, down):  1.121E-06 0.000E+00

     total cpu time spent up to now is      127.7 secs

     total energy              =   -2326.92480138 Ry
     estimated scf accuracy    <       0.00356514 Ry

     iteration #  6     ecut=    80.00 Ry     beta= 0.30
     Davidson diagonalization with overlap
     ethr =  3.88E-06,  avg # of iterations =  8.6

     negative rho (up, down):  5.562E-07 0.000E+00

     total cpu time spent up to now is      150.7 secs

     total energy              =   -2326.92491004 Ry
     estimated scf accuracy    <       0.00149484 Ry

     iteration #  7     ecut=    80.00 Ry     beta= 0.30
     Davidson diagonalization with overlap
     ethr =  1.62E-06,  avg # of iterations =  2.0

     negative rho (up, down):  4.514E-07 0.000E+00

     total cpu time spent up to now is      168.7 secs

     total energy              =   -2326.92479241 Ry
     estimated scf accuracy    <       0.00139881 Ry

     iteration #  8     ecut=    80.00 Ry     beta= 0.30
     Davidson diagonalization with overlap
     ethr =  1.52E-06,  avg # of iterations =  6.5

     negative rho (up, down):  2.254E-07 0.000E+00

     total cpu time spent up to now is      187.9 secs

     total energy              =   -2326.92474166 Ry
     estimated scf accuracy    <       0.00116506 Ry

     iteration #  9     ecut=    80.00 Ry     beta= 0.30
     Davidson diagonalization with overlap
     ethr =  1.27E-06,  avg # of iterations =  1.1

     negative rho (up, down):  6.573E-03 0.000E+00

     total cpu time spent up to now is      203.7 secs

     total energy              =   -2326.92451118 Ry
     estimated scf accuracy    <       0.00088412 Ry

     iteration # 10     ecut=    80.00 Ry     beta= 0.30
     Davidson diagonalization with overlap
     ethr =  9.61E-07,  avg # of iterations =  7.4

     negative rho (up, down):  5.430E-03 0.000E+00

     total cpu time spent up to now is      223.7 secs

     total energy              =   -2326.92452093 Ry
     estimated scf accuracy    <       0.00044822 Ry

     iteration # 11     ecut=    80.00 Ry     beta= 0.30
     Davidson diagonalization with overlap
     ethr =  4.87E-07,  avg # of iterations =  1.4

     negative rho (up, down):  5.342E-03 0.000E+00

     total cpu time spent up to now is      240.3 secs

     total energy              =   -2326.92452110 Ry
     estimated scf accuracy    <       0.00031371 Ry

     iteration # 12     ecut=    80.00 Ry     beta= 0.30
     Davidson diagonalization with overlap
     ethr =  3.41E-07,  avg # of iterations =  4.5

     negative rho (up, down):  3.219E-03 0.000E+00

     total cpu time spent up to now is      257.8 secs

     total energy              =   -2326.92455301 Ry
     estimated scf accuracy    <       0.00021939 Ry

     iteration # 13     ecut=    80.00 Ry     beta= 0.30
     Davidson diagonalization with overlap
     ethr =  2.38E-07,  avg # of iterations =  3.5

     negative rho (up, down):  2.710E-03 0.000E+00

     total cpu time spent up to now is      275.3 secs

     total energy              =   -2326.92447346 Ry
     estimated scf accuracy    <       0.00018556 Ry

     iteration # 14     ecut=    80.00 Ry     beta= 0.30
     Davidson diagonalization with overlap
     ethr =  2.02E-07,  avg # of iterations =  2.0

     negative rho (up, down):  3.796E-03 0.000E+00

     total cpu time spent up to now is      292.8 secs

     total energy              =   -2326.92444786 Ry
     estimated scf accuracy    <       0.00010318 Ry

     iteration # 15     ecut=    80.00 Ry     beta= 0.30
     Davidson diagonalization with overlap
     ethr =  1.12E-07,  avg # of iterations =  1.1

     negative rho (up, down):  3.114E-03 0.000E+00

     total cpu time spent up to now is      308.5 secs

     total energy              =   -2326.92450687 Ry
     estimated scf accuracy    <       0.00006637 Ry

     iteration # 16     ecut=    80.00 Ry     beta= 0.30
     Davidson diagonalization with overlap
     ethr =  7.21E-08,  avg # of iterations =  5.5

     negative rho (up, down):  2.601E-03 0.000E+00

     total cpu time spent up to now is      330.3 secs

     total energy              =   -2326.92453160 Ry
     estimated scf accuracy    <       0.00001338 Ry

     iteration # 17     ecut=    80.00 Ry     beta= 0.30
     Davidson diagonalization with overlap
     ethr =  1.45E-08,  avg # of iterations =  4.2

     negative rho (up, down):  1.375E-03 0.000E+00

     total cpu time spent up to now is      351.6 secs

     total energy              =   -2326.92453633 Ry
     estimated scf accuracy    <       0.00000762 Ry

     iteration # 18     ecut=    80.00 Ry     beta= 0.30
     Davidson diagonalization with overlap
     ethr =  8.28E-09,  avg # of iterations =  3.4

     negative rho (up, down):  7.987E-04 0.000E+00

     total cpu time spent up to now is      369.3 secs

     total energy              =   -2326.92454183 Ry
     estimated scf accuracy    <       0.00000309 Ry

     iteration # 19     ecut=    80.00 Ry     beta= 0.30
     Davidson diagonalization with overlap
     ethr =  3.36E-09,  avg # of iterations =  3.6

     negative rho (up, down):  3.881E-04 0.000E+00

     total cpu time spent up to now is      388.7 secs

     total energy              =   -2326.92454418 Ry
     estimated scf accuracy    <       0.00000103 Ry

     iteration # 20     ecut=    80.00 Ry     beta= 0.30
     Davidson diagonalization with overlap
     ethr =  1.12E-09,  avg # of iterations =  2.0

     negative rho (up, down):  2.973E-04 0.000E+00

     total cpu time spent up to now is      409.6 secs

     total energy              =   -2326.92454371 Ry
     estimated scf accuracy    <       0.00000023 Ry

     iteration # 21     ecut=    80.00 Ry     beta= 0.30
     Davidson diagonalization with overlap
     ethr =  2.54E-10,  avg # of iterations =  2.5

     negative rho (up, down):  2.626E-04 0.000E+00

     total cpu time spent up to now is      430.8 secs

     total energy              =   -2326.92454370 Ry
     estimated scf accuracy    <       0.00000006 Ry

     iteration # 22     ecut=    80.00 Ry     beta= 0.30
     Davidson diagonalization with overlap
     ethr =  6.34E-11,  avg # of iterations =  1.5

     negative rho (up, down):  2.243E-04 0.000E+00

     total cpu time spent up to now is      447.8 secs

     total energy              =   -2326.92454411 Ry
     estimated scf accuracy    <       0.00000004 Ry

     iteration # 23     ecut=    80.00 Ry     beta= 0.30
     Davidson diagonalization with overlap
     ethr =  4.24E-11,  avg # of iterations =  2.1

     negative rho (up, down):  2.082E-04 0.000E+00

     total cpu time spent up to now is      466.7 secs

     End of self-consistent calculation

          k = 0.0000 0.0000 0.0000 ( 37787 PWs)   bands (ev):

   -61.8998 -61.8989 -48.2968 -48.2968 -48.2953 -48.2953 -48.2946 -48.2946
   -48.2931 -48.2931 -48.2516 -48.2516 -48.2501 -48.2501 -48.2490 -48.2490
   -48.2477 -48.2477 -48.2330 -48.2316 -48.2302 -48.2290 -36.0182 -36.0172
   -35.9029 -35.9029 -35.9016 -35.9016 -15.2972 -15.2936 -14.4789 -14.4769
    -6.4481  -6.4303  -3.3846  -3.3642  -3.3642  -3.3581  -3.3581  -3.3002
    -1.6290  -1.5605  -1.0679  -1.0679  -1.0650  -1.0650   0.2264   0.2264
     0.2293   0.2293   2.9451   2.9451   2.9472   2.9473   3.0816

          k = 0.0000 0.0722 0.0000 ( 37755 PWs)   bands (ev):

   -61.8988 -61.8979 -48.2968 -48.2967 -48.2953 -48.2951 -48.2945 -48.2944
   -48.2931 -48.2930 -48.2517 -48.2516 -48.2502 -48.2501 -48.2490 -48.2490
   -48.2477 -48.2477 -48.2329 -48.2315 -48.2301 -48.2289 -36.0160 -36.0149
   -35.9135 -35.9122 -35.9053 -35.9040 -15.2404 -15.2368 -14.4494 -14.4474
    -6.3704  -6.3525  -3.8515  -3.8206  -3.3322  -3.3261  -2.9628  -2.9112
    -1.6603  -1.6052  -1.2600  -1.2522  -1.2148  -1.2117   0.1112   0.1266
     0.3394   0.3419   2.6026   2.6363   2.8964   2.8985   3.2239

          k = 0.0000 0.1443 0.0000 ( 37697 PWs)   bands (ev):

   -61.8961 -61.8952 -48.2968 -48.2961 -48.2953 -48.2946 -48.2945 -48.2938
   -48.2931 -48.2924 -48.2518 -48.2517 -48.2504 -48.2502 -48.2492 -48.2491
   -48.2479 -48.2477 -48.2327 -48.2312 -48.2299 -48.2286 -36.0096 -36.0086
   -35.9436 -35.9423 -35.9123 -35.9109 -15.0740 -15.0705 -14.3633 -14.3611
    -6.1451  -6.1272  -4.3322  -4.3096  -3.2569  -3.2508  -2.7403  -2.6956
    -2.0869  -2.0724  -1.5022  -1.4988  -1.4816  -1.4385  -0.0191   0.0166
     0.5298   0.5317   1.9917   2.0582   2.7965   2.7986   3.5187

          k = 0.0000 0.2165 0.0000 ( 37653 PWs)   bands (ev):

   -61.8920 -61.8911 -48.2968 -48.2953 -48.2952 -48.2945 -48.2938 -48.2931
   -48.2930 -48.2916 -48.2521 -48.2518 -48.2506 -48.2503 -48.2494 -48.2491
   -48.2481 -48.2478 -48.2323 -48.2308 -48.2295 -48.2282 -36.0004 -35.9993
   -35.9881 -35.9868 -35.9226 -35.9213 -14.8111 -14.8076 -14.2268 -14.2246
    -5.8042  -5.7867  -4.7581  -4.7416  -3.2619  -3.2570  -3.2052  -3.1992
    -2.4590  -2.4183  -1.7259  -1.7221  -1.5760  -1.5452  -0.0563  -0.0105
     0.6362   0.6376   1.6085   1.7156   2.7309   2.7331   3.8923

          k = 0.0000 0.2887 0.0000 ( 37721 PWs)   bands (ev):

   -61.8871 -61.8862 -48.2968 -48.2952 -48.2945 -48.2944 -48.2931 -48.2929
   -48.2921 -48.2907 -48.2524 -48.2519 -48.2509 -48.2504 -48.2497 -48.2492
   -48.2484 -48.2479 -48.2318 -48.2304 -48.2290 -48.2278 -36.0412 -36.0398
   -35.9885 -35.9874 -35.9348 -35.9335 -14.4778 -14.4745 -14.0490 -14.0465
    -5.4909  -5.4766  -4.9966  -4.9827  -4.2829  -4.2794  -3.2595  -3.2538
    -2.6377  -2.6090  -1.8211  -1.8050  -1.7693  -1.7653   0.0226   0.0718
     0.6411   0.6423   1.6952   1.8390   2.7320   2.7345   4.3318

          k = 0.0000 0.3608 0.0000 ( 37749 PWs)   bands (ev):

   -61.8823 -61.8814 -48.2967 -48.2952 -48.2944 -48.2935 -48.2930 -48.2920
   -48.2912 -48.2898 -48.2528 -48.2520 -48.2513 -48.2505 -48.2499 -48.2493
   -48.2486 -48.2480 -48.2314 -48.2299 -48.2286 -48.2273 -36.0931 -36.0917
   -35.9771 -35.9761 -35.9470 -35.9456 -14.1295 -14.1262 -13.8295 -13.8269
    -5.6039  -5.5964  -5.2406  -5.2366  -4.7326  -4.7187  -3.4080  -3.4026
    -2.9911  -2.9744  -2.0840  -2.0722  -1.6639  -1.6600   0.2854   0.3283
     0.6178   0.6191   2.1042   2.2648   2.7684   2.7714   4.8035

          k = 0.0000 0.4330 0.0000 ( 37785 PWs)   bands (ev):

   -61.8781 -61.8773 -48.2967 -48.2952 -48.2944 -48.2930 -48.2927 -48.2912
   -48.2905 -48.2891 -48.2530 -48.2521 -48.2516 -48.2506 -48.2501 -48.2494
   -48.2488 -48.2481 -48.2310 -48.2295 -48.2282 -48.2270 -36.1369 -36.1354
   -35.9675 -35.9665 -35.9573 -35.9559 -13.8656 -13.8622 -13.5506 -13.5479
    -6.2026  -6.1987  -5.5819  -5.5751  -4.5395  -4.5322  -3.5672  -3.5619
    -3.2442  -3.2294  -2.2555  -2.2472  -1.5300  -1.5263   0.6321   0.6339
     0.6573   0.6876   2.6258   2.7730   2.8048   2.8082   5.0223

          k = 0.0000 0.5052 0.0000 ( 37822 PWs)   bands (ev):

   -61.8754 -61.8745 -48.2968 -48.2952 -48.2944 -48.2930 -48.2922 -48.2907
   -48.2899 -48.2885 -48.2533 -48.2522 -48.2518 -48.2507 -48.2503 -48.2495
   -48.2489 -48.2482 -48.2308 -48.2293 -48.2279 -48.2267 -36.1659 -36.1644
   -35.9641 -35.9628 -35.9610 -35.9601 -13.7204 -13.7168 -13.2887 -13.2861
    -6.7601  -6.7563  -5.6023  -5.5977  -4.7050  -4.7008  -3.6792  -3.6740
    -3.1229  -3.1099  -2.3818  -2.3770  -1.4427  -1.4393   0.6811   0.6833
     1.0062   1.0227   2.8273   2.8310   3.0996   3.1952   4.6124

          k = 0.0000-0.5774 0.0000 ( 37832 PWs)   bands (ev):

   -61.8744 -61.8735 -48.2968 -48.2952 -48.2944 -48.2930 -48.2921 -48.2905
   -48.2898 -48.2884 -48.2533 -48.2522 -48.2518 -48.2507 -48.2503 -48.2495
   -48.2490 -48.2482 -48.2307 -48.2292 -48.2279 -48.2266 -36.1761 -36.1746
   -35.9665 -35.9652 -35.9588 -35.9578 -13.6729 -13.6693 -13.1821 -13.1796
    -6.9654  -6.9615  -5.5718  -5.5693  -4.8478  -4.8433  -3.7189  -3.7136
    -2.9923  -2.9827  -2.4497  -2.4461  -1.4149  -1.4117   0.7086   0.7110
     1.1581   1.1652   2.8346   2.8383   3.3462   3.3916   4.2907

          k = 0.0625 0.1083 0.0000 ( 37709 PWs)   bands (ev):

   -61.8970 -61.8961 -48.2968 -48.2963 -48.2952 -48.2948 -48.2945 -48.2940
   -48.2931 -48.2926 -48.2518 -48.2517 -48.2503 -48.2502 -48.2491 -48.2490
   -48.2478 -48.2477 -48.2328 -48.2313 -48.2300 -48.2287 -36.0117 -36.0106
   -35.9336 -35.9322 -35.9103 -35.9090 -15.1288 -15.1252 -14.3916 -14.3895
    -6.2184  -6.2005  -4.2045  -4.1798  -3.2857  -3.2796  -2.7638  -2.7131
    -1.8873  -1.8714  -1.5047  -1.4978  -1.4017  -1.3662   0.0443   0.0749
     0.4296   0.4316   2.2244   2.2811   2.7511   2.7551   3.4354

          k = 0.0625 0.1804 0.0000 ( 37703 PWs)   bands (ev):

   -61.8935 -61.8927 -48.2967 -48.2956 -48.2952 -48.2945 -48.2941 -48.2934
   -48.2931 -48.2920 -48.2520 -48.2517 -48.2505 -48.2503 -48.2493 -48.2491
   -48.2480 -48.2478 -48.2324 -48.2310 -48.2296 -48.2284 -36.0037 -36.0027
   -35.9702 -35.9688 -35.9198 -35.9185 -14.9137 -14.9102 -14.2805 -14.2783
    -5.9304  -5.9126  -4.6145  -4.5962  -3.2800  -3.2741  -2.8246  -2.8032
    -2.4649  -2.4469  -1.7634  -1.7488  -1.4352  -1.3977   0.0383   0.0776
     0.4272   0.4338   1.8899   1.9744   2.5762   2.5819   3.7599

          k = 0.0625 0.2526 0.0000 ( 37702 PWs)   bands (ev):

   -61.8891 -61.8882 -48.2967 -48.2952 -48.2948 -48.2944 -48.2933 -48.2930
   -48.2925 -48.2911 -48.2523 -48.2519 -48.2508 -48.2504 -48.2496 -48.2492
   -48.2482 -48.2479 -48.2320 -48.2306 -48.2292 -48.2280 -36.0179 -36.0165
   -35.9931 -35.9920 -35.9322 -35.9309 -14.6135 -14.6102 -14.1244 -14.1220
    -5.5622  -5.5455  -4.9563  -4.9422  -3.8387  -3.8349  -3.2263  -3.2204
    -2.6130  -2.5912  -1.9719  -1.9597  -1.4588  -1.4358  -0.0257   0.0128
     0.4991   0.5195   1.7718   1.8755   2.5403   2.5595   4.1625

          k = 0.0625 0.3248 0.0000 ( 37734 PWs)   bands (ev):

   -61.8842 -61.8833 -48.2967 -48.2951 -48.2944 -48.2939 -48.2930 -48.2924
   -48.2917 -48.2902 -48.2526 -48.2520 -48.2511 -48.2505 -48.2498 -48.2493
   -48.2485 -48.2480 -48.2316 -48.2301 -48.2288 -48.2275 -36.0688 -36.0674
   -35.9818 -35.9808 -35.9456 -35.9442 -14.2651 -14.2619 -13.9308 -13.9283
    -5.4517  -5.4411  -4.9313  -4.9199  -4.7840  -4.7784  -3.4655  -3.4601
    -2.7350  -2.7194  -2.2832  -2.2782  -1.4426  -1.4300   0.0259   0.0624
     0.6496   0.6661   1.9041   2.0130   2.6204   2.6645   4.6283

          k = 0.0625 0.3969 0.0000 ( 37770 PWs)   bands (ev):

   -61.8797 -61.8788 -48.2966 -48.2951 -48.2943 -48.2931 -48.2929 -48.2916
   -48.2909 -48.2894 -48.2529 -48.2521 -48.2514 -48.2506 -48.2500 -48.2494
   -48.2487 -48.2481 -48.2312 -48.2297 -48.2283 -48.2271 -36.1156 -36.1141
   -35.9714 -35.9704 -35.9579 -35.9565 -13.9489 -13.9456 -13.6866 -13.6840
    -5.8184  -5.8143  -5.4857  -5.4789  -4.5657  -4.5544  -3.7106  -3.7051
    -2.9958  -2.9860  -2.5014  -2.4965  -1.3712  -1.3644   0.2294   0.2540
     0.8081   0.8216   2.2093   2.2821   2.7715   2.8549   5.0634

          k = 0.0625 0.4691 0.0000 ( 37798 PWs)   bands (ev):

   -61.8763 -61.8754 -48.2966 -48.2951 -48.2943 -48.2928 -48.2925 -48.2910
   -48.2902 -48.2888 -48.2532 -48.2522 -48.2517 -48.2507 -48.2502 -48.2495
   -48.2489 -48.2482 -48.2308 -48.2294 -48.2280 -48.2268 -36.1511 -36.1496
   -35.9677 -35.9663 -35.9630 -35.9620 -13.7515 -13.7480 -13.4010 -13.3984
    -6.4733  -6.4695  -5.5917  -5.5861  -4.5568  -4.5520  -3.8044  -3.7988
    -3.1108  -3.1005  -2.6062  -2.6024  -1.3294  -1.3257   0.4787   0.4901
     0.9909   1.0029   2.4641   2.4857   3.0171   3.1151   5.0260

          k = 0.0625 0.5413 0.0000 ( 37791 PWs)   bands (ev):

   -61.8744 -61.8735 -48.2966 -48.2951 -48.2942 -48.2928 -48.2922 -48.2906
   -48.2899 -48.2885 -48.2533 -48.2522 -48.2518 -48.2507 -48.2503 -48.2495
   -48.2490 -48.2482 -48.2307 -48.2292 -48.2279 -48.2266 -36.1703 -36.1688
   -35.9726 -35.9712 -35.9588 -35.9578 -13.6583 -13.6547 -13.2058 -13.2032
    -6.8602  -6.8563  -5.5732  -5.5699  -4.7664  -4.7620  -3.8215  -3.8166
    -2.9968  -2.9879  -2.6779  -2.6754  -1.3299  -1.3273   0.6635   0.6670
     1.1227   1.1304   2.5721   2.5764   3.2810   3.3371   4.5765

          k = 0.1250 0.2165 0.0000 ( 37731 PWs)   bands (ev):

   -61.8897 -61.8889 -48.2967 -48.2951 -48.2950 -48.2944 -48.2935 -48.2930
   -48.2927 -48.2913 -48.2522 -48.2518 -48.2508 -48.2504 -48.2495 -48.2492
   -48.2482 -48.2479 -48.2321 -48.2306 -48.2293 -48.2280 -36.0081 -36.0067
   -35.9949 -35.9939 -35.9327 -35.9314 -14.6601 -14.6567 -14.1503 -14.1479
    -5.5934  -5.5759  -4.9240  -4.9097  -3.6971  -3.6926  -3.0203  -3.0033
    -2.8669  -2.8627  -1.9451  -1.9230  -1.3429  -1.3101   0.0403   0.0577
     0.2881   0.3311   2.0990   2.1808   2.1828   2.2165   4.1096

          k = 0.1250 0.2887 0.0000 ( 37723 PWs)   bands (ev):

   -61.8853 -61.8844 -48.2965 -48.2950 -48.2943 -48.2942 -48.2928 -48.2927
   -48.2920 -48.2906 -48.2525 -48.2520 -48.2510 -48.2505 -48.2497 -48.2493
   -48.2484 -48.2480 -48.2317 -48.2302 -48.2289 -48.2276 -36.0516 -36.0502
   -35.9846 -35.9836 -35.9487 -35.9474 -14.3376 -14.3343 -13.9830 -13.9805
    -5.2770  -5.2642  -5.0884  -5.0740  -4.4648  -4.4610  -3.4671  -3.4595
    -2.9570  -2.9525  -2.2073  -2.1954  -1.2119  -1.1874  -0.1783  -0.1496
     0.5842   0.6197   1.8580   1.8802   2.4089   2.5274   4.5422

          k = 0.1250 0.3608 0.0000 ( 37761 PWs)   bands (ev):

   -61.8808 -61.8799 -48.2964 -48.2949 -48.2941 -48.2935 -48.2927 -48.2920
   -48.2913 -48.2899 -48.2528 -48.2521 -48.2513 -48.2506 -48.2500 -48.2494
   -48.2486 -48.2481 -48.2313 -48.2298 -48.2285 -48.2272 -36.0945 -36.0931
   -35.9747 -35.9737 -35.9644 -35.9631 -13.9975 -13.9942 -13.7821 -13.7794
    -5.4767  -5.4696  -5.2650  -5.2610  -4.6744  -4.6600  -3.8538  -3.8482
    -3.0562  -3.0523  -2.6340  -2.6286  -1.0760  -1.0602  -0.1425  -0.1148
     0.8745   0.8956   1.7736   1.8007   2.7131   2.8392   5.0208

          k = 0.1250 0.4330 0.0000 ( 37768 PWs)   bands (ev):

   -61.8770 -61.8761 -48.2963 -48.2948 -48.2939 -48.2929 -48.2925 -48.2914
   -48.2907 -48.2892 -48.2530 -48.2522 -48.2516 -48.2507 -48.2501 -48.2495
   -48.2488 -48.2482 -48.2309 -48.2294 -48.2281 -48.2269 -36.1305 -36.1291
   -35.9798 -35.9784 -35.9645 -35.9635 -13.7475 -13.7441 -13.5189 -13.5162
    -6.0647  -6.0609  -5.5252  -5.5190  -4.4001  -4.3927  -4.0815  -4.0746
    -3.1675  -3.1644  -2.9824  -2.9771  -1.0399  -1.0313   0.1050   0.1254
     1.0712   1.0808   1.8855   1.9091   3.0025   3.1087   5.3270

          k = 0.1250 0.5052 0.0000 ( 37794 PWs)   bands (ev):

   -61.8744 -61.8735 -48.2962 -48.2947 -48.2939 -48.2925 -48.2925 -48.2910
   -48.2902 -48.2888 -48.2532 -48.2523 -48.2517 -48.2508 -48.2503 -48.2496
   -48.2489 -48.2483 -48.2307 -48.2292 -48.2279 -48.2266 -36.1544 -36.1530
   -35.9889 -35.9875 -35.9588 -35.9578 -13.6156 -13.6121 -13.2699 -13.2672
    -6.5680  -6.5642  -5.5576  -5.5534  -4.5711  -4.5668  -4.0323  -4.0270
    -3.2486  -3.2462  -3.0468  -3.0403  -1.0951  -1.0904   0.4480   0.4594
     1.1233   1.1279   2.0579   2.0718   3.2134   3.2746   5.1393

          k = 0.1250 0.5774 0.0000 ( 37780 PWs)   bands (ev):

   -61.8735 -61.8726 -48.2962 -48.2947 -48.2938 -48.2924 -48.2924 -48.2908
   -48.2901 -48.2887 -48.2533 -48.2523 -48.2518 -48.2508 -48.2503 -48.2496
   -48.2490 -48.2483 -48.2306 -48.2291 -48.2278 -48.2265 -36.1628 -36.1613
   -35.9921 -35.9907 -35.9568 -35.9558 -13.5720 -13.5683 -13.1706 -13.1679
    -6.7516  -6.7477  -5.5491  -5.5462  -4.6857  -4.6813  -4.0283  -4.0238
    -3.2777  -3.2755  -3.0007  -2.9953  -1.1338  -1.1298   0.6544   0.6572
     1.0745   1.0793   2.1469   2.1498   3.2914   3.3275   4.9388

          k = 0.1875 0.3248 0.0000 ( 37725 PWs)   bands (ev):

   -61.8811 -61.8803 -48.2963 -48.2947 -48.2939 -48.2937 -48.2925 -48.2922
   -48.2914 -48.2900 -48.2528 -48.2521 -48.2513 -48.2506 -48.2499 -48.2495
   -48.2486 -48.2481 -48.2313 -48.2298 -48.2285 -48.2272 -36.0850 -36.0836
   -35.9768 -35.9757 -35.9680 -35.9668 -14.0128 -14.0096 -13.8167 -13.8140
    -5.3452  -5.3366  -5.0962  -5.0924  -4.7635  -4.7488  -3.8575  -3.8512
    -3.3367  -3.3327  -2.5142  -2.5097  -0.9112  -0.8894  -0.3218  -0.2946
     0.8693   0.8967   1.5964   1.6062   2.6956   2.8331   4.9976

          k = 0.1875 0.3969 0.0000 ( 37753 PWs)   bands (ev):

   -61.8773 -61.8765 -48.2960 -48.2944 -48.2937 -48.2933 -48.2922 -48.2917
   -48.2910 -48.2896 -48.2530 -48.2522 -48.2515 -48.2507 -48.2501 -48.2496
   -48.2488 -48.2482 -48.2309 -48.2295 -48.2281 -48.2269 -36.1137 -36.1123
   -35.9921 -35.9907 -35.9653 -35.9643 -13.7098 -13.7066 -13.6193 -13.6164
    -5.6959  -5.6920  -5.4479  -5.4414  -4.3616  -4.3495  -4.2086  -4.2035
    -3.6623  -3.6588  -2.9115  -2.9098  -0.7006  -0.6865  -0.2508  -0.2291
     1.0977   1.1122   1.5111   1.5291   3.0023   3.1132   5.4357

          k = 0.1875 0.4691 0.0000 ( 37759 PWs)   bands (ev):

   -61.8744 -61.8735 -48.2958 -48.2942 -48.2934 -48.2929 -48.2920 -48.2914
   -48.2907 -48.2893 -48.2531 -48.2524 -48.2516 -48.2509 -48.2502 -48.2496
   -48.2489 -48.2483 -48.2307 -48.2292 -48.2279 -48.2266 -36.1346 -36.1332
   -36.0092 -36.0078 -35.9588 -35.9579 -13.5494 -13.5460 -13.3570 -13.3542
    -6.1801  -6.1764  -5.5144  -5.5097  -4.4302  -4.4256  -4.1228  -4.1157
    -3.8877  -3.8848  -3.1818  -3.1792  -0.7486  -0.7410   0.0955   0.1090
     1.1433   1.1483   1.6596   1.6821   3.1947   3.2539   5.5428

          k = 0.1875 0.5413 0.0000 ( 37793 PWs)   bands (ev):

   -61.8728 -61.8720 -48.2956 -48.2941 -48.2933 -48.2927 -48.2919 -48.2912
   -48.2905 -48.2891 -48.2532 -48.2525 -48.2517 -48.2510 -48.2503 -48.2497
   -48.2490 -48.2483 -48.2305 -48.2291 -48.2277 -48.2265 -36.1456 -36.1441
   -36.0188 -36.0174 -35.9552 -35.9543 -13.4718 -13.4683 -13.1875 -13.1847
    -6.4574  -6.4537  -5.5424  -5.5389  -4.5236  -4.5192  -4.1641  -4.1599
    -3.9622  -3.9599  -3.2031  -3.1999  -0.8353  -0.8302   0.4667   0.4721
     0.9971   0.9999   1.8750   1.8889   3.2084   3.2348   5.4917

          k = 0.2500 0.4330 0.0000 ( 37711 PWs)   bands (ev):

   -61.8744 -61.8735 -48.2955 -48.2940 -48.2933 -48.2930 -48.2918 -48.2915
   -48.2909 -48.2895 -48.2531 -48.2524 -48.2516 -48.2509 -48.2502 -48.2497
   -48.2489 -48.2483 -48.2307 -48.2292 -48.2279 -48.2266 -36.1242 -36.1228
   -36.0198 -36.0184 -35.9588 -35.9579 -13.4876 -13.4843 -13.4273 -13.4244
    -5.9596  -5.9558  -5.4829  -5.4780  -4.4121  -4.4071  -4.2510  -4.2478
    -4.0492  -4.0404  -3.2772  -3.2756  -0.3434  -0.3282  -0.3145  -0.3085
     1.1368   1.1450   1.5335   1.5581   3.1945   3.2519   5.7193

          k = 0.2500 0.5052 0.0000 ( 37776 PWs)   bands (ev):

   -61.8725 -61.8716 -48.2951 -48.2936 -48.2933 -48.2927 -48.2917 -48.2913
   -48.2909 -48.2895 -48.2531 -48.2525 -48.2516 -48.2510 -48.2503 -48.2497
   -48.2490 -48.2484 -48.2305 -48.2290 -48.2277 -48.2265 -36.1267 -36.1253
   -36.0428 -36.0414 -35.9544 -35.9534 -13.3779 -13.3745 -13.2403 -13.2374
    -6.1073  -6.1036  -5.5342  -5.5302  -4.6706  -4.6671  -4.3890  -4.3846
    -3.9732  -3.9688  -3.5149  -3.5132  -0.4399  -0.4332   0.0573   0.0616
     0.9605   0.9629   1.8233   1.8510   3.1471   3.1590   5.6835

          k = 0.2500 0.5774 0.0000 ( 37791 PWs)   bands (ev):

   -61.8718 -61.8709 -48.2949 -48.2934 -48.2933 -48.2925 -48.2918 -48.2911
   -48.2910 -48.2896 -48.2531 -48.2526 -48.2516 -48.2511 -48.2504 -48.2497
   -48.2491 -48.2484 -48.2304 -48.2290 -48.2277 -48.2264 -36.1262 -36.1247
   -36.0524 -36.0510 -35.9528 -35.9519 -13.3393 -13.3358 -13.1705 -13.1675
    -6.1502  -6.1466  -5.5642  -5.5605  -4.8236  -4.8201  -4.2090  -4.2059
    -4.1883  -4.1859  -3.5156  -3.5138  -0.4899  -0.4848   0.3169   0.3189
     0.7535   0.7561   2.0491   2.0637   3.0123   3.0197   5.6255

          k = 0.3125 0.5413 0.0000 ( 37789 PWs)   bands (ev):

   -61.8714 -61.8705 -48.2945 -48.2937 -48.2930 -48.2921 -48.2921 -48.2913
   -48.2907 -48.2899 -48.2531 -48.2526 -48.2516 -48.2512 -48.2504 -48.2497
   -48.2491 -48.2484 -48.2304 -48.2289 -48.2276 -48.2264 -36.1087 -36.1073
   -36.0749 -36.0734 -35.9520 -35.9510 -13.2599 -13.2564 -13.1978 -13.1948
    -5.8460  -5.8424  -5.5740  -5.5701  -5.2632  -5.2597  -4.2222  -4.2184
    -3.8840  -3.8822  -3.8795  -3.8780  -0.1532  -0.1465   0.0257   0.0294
     0.6543   0.6565   2.2516   2.2769   2.8228   2.8359   5.5806

     the Fermi energy is    -0.3003 ev

!    total energy              =   -2326.92454411 Ry
     total all-electron energy =    -35628.672373 Ry
     estimated scf accuracy    <          9.9E-09 Ry
     smearing contrib. (-TS)   =       0.00088330 Ry
     internal energy E=F+TS    =   -2326.92542741 Ry

     The total energy is F=E-TS. E is the sum of the following terms:
     one-electron contribution =  -24108.27910731 Ry
     hartree contribution      =   12042.35616342 Ry
     xc contribution           =    -152.42394117 Ry
     ewald contribution        =   10901.93583202 Ry
     one-center paw contrib.   =   -1010.51437436 Ry

     convergence has been achieved in  23 iterations

     Writing all to output data dir ./tmp/cleave_013/mose2_cleave_013.save/ :
     XML data file, charge density, pseudopotentials, collected wavefunctions

     init_run     :     11.72s CPU     11.94s WALL (       1 calls)
     electrons    :    445.47s CPU    454.60s WALL (       1 calls)

     Called by init_run:
     wfcinit      :      5.39s CPU      5.43s WALL (       1 calls)
     potinit      :      5.70s CPU      5.75s WALL (       1 calls)
     hinit0       :      0.05s CPU      0.06s WALL (       1 calls)

     Called by electrons:
     c_bands      :    371.65s CPU    375.04s WALL (      24 calls)
     sum_band     :     48.57s CPU     51.25s WALL (      24 calls)
     v_of_rho     :     14.85s CPU     15.68s WALL (      24 calls)
     newd         :      8.93s CPU     11.22s WALL (      24 calls)
     PAW_pot      :      1.52s CPU      1.56s WALL (      24 calls)
     mix_rho      :      5.77s CPU      5.82s WALL (      24 calls)
     vdW_kernel   :      5.26s CPU      5.26s WALL (       1 calls)

     Called by c_bands:
     init_us_2    :      3.08s CPU      3.10s WALL (    1470 calls)
     cegterg      :    363.18s CPU    366.41s WALL (     720 calls)

     Called by *egterg:
     cdiaghg      :     11.65s CPU     11.66s WALL (    3295 calls)
     h_psi        :    159.66s CPU    160.74s WALL (    3355 calls)
     s_psi        :     33.04s CPU     33.07s WALL (    3355 calls)
     g_psi        :      0.58s CPU      0.58s WALL (    2605 calls)

     Called by h_psi:
     h_psi:calbec :     47.47s CPU     47.97s WALL (    3355 calls)
     vloc_psi     :     70.91s CPU     71.44s WALL (    3355 calls)
                                        0.00s GPU  (    3355 calls)
     add_vuspsi   :     40.70s CPU     40.75s WALL (    3355 calls)

     General routines
     calbec       :     67.74s CPU     68.48s WALL (    4075 calls)
     fft          :      5.85s CPU      5.96s WALL (    1511 calls)
     ffts         :      2.04s CPU      2.06s WALL (    2754 calls)
     fftw         :     77.70s CPU     78.29s WALL (  218116 calls)
     interpolate  :      0.11s CPU      0.11s WALL (      24 calls)

     Parallel routines

     PWSCF        :   7m37.81s CPU   7m47.32s WALL


   This run was terminated on:  10:36:39  20Jun2026            

=------------------------------------------------------------------------------=
   JOB DONE.
=------------------------------------------------------------------------------=
Note: The following floating-point exceptions are signalling: IEEE_UNDERFLOW_FLAG IEEE_DENORMAL
Note: The following floating-point exceptions are signalling: IEEE_UNDERFLOW_FLAG IEEE_DENORMAL
Note: The following floating-point exceptions are signalling: IEEE_UNDERFLOW_FLAG IEEE_DENORMAL
Note: The following floating-point exceptions are signalling: IEEE_UNDERFLOW_FLAG IEEE_DENORMAL
Note: The following floating-point exceptions are signalling: IEEE_UNDERFLOW_FLAG IEEE_DENORMAL
Note: The following floating-point exceptions are signalling: IEEE_UNDERFLOW_FLAG IEEE_DENORMAL
Note: The following floating-point exceptions are signalling: IEEE_UNDERFLOW_FLAG IEEE_DENORMAL
Note: The following floating-point exceptions are signalling: IEEE_UNDERFLOW_FLAG IEEE_DENORMAL
Note: The following floating-point exceptions are signalling: IEEE_UNDERFLOW_FLAG IEEE_DENORMAL
Note: The following floating-point exceptions are signalling: IEEE_UNDERFLOW_FLAG IEEE_DENORMAL
Note: The following floating-point exceptions are signalling: IEEE_UNDERFLOW_FLAG IEEE_DENORMAL
Note: The following floating-point exceptions are signalling: IEEE_UNDERFLOW_FLAG IEEE_DENORMAL
Note: The following floating-point exceptions are signalling: IEEE_UNDERFLOW_FLAG IEEE_DENORMAL
Note: The following floating-point exceptions are signalling: IEEE_UNDERFLOW_FLAG IEEE_DENORMAL
Note: The following floating-point exceptions are signalling: IEEE_UNDERFLOW_FLAG IEEE_DENORMAL
Note: The following floating-point exceptions are signalling: IEEE_UNDERFLOW_FLAG IEEE_DENORMAL
Note: The following floating-point exceptions are signalling: IEEE_UNDERFLOW_FLAG IEEE_DENORMAL
Note: The following floating-point exceptions are signalling: IEEE_UNDERFLOW_FLAG IEEE_DENORMAL
Note: The following floating-point exceptions are signalling: IEEE_UNDERFLOW_FLAG IEEE_DENORMAL
Note: The following floating-point exceptions are signalling: IEEE_UNDERFLOW_FLAG IEEE_DENORMAL
Note: The following floating-point exceptions are signalling: IEEE_UNDERFLOW_FLAG IEEE_DENORMAL
Note: The following floating-point exceptions are signalling: IEEE_UNDERFLOW_FLAG IEEE_DENORMAL
Note: The following floating-point exceptions are signalling: IEEE_UNDERFLOW_FLAG IEEE_DENORMAL
Note: The following floating-point exceptions are signalling: IEEE_UNDERFLOW_FLAG IEEE_DENORMAL
