
     Program PWSCF v.7.5 starts on 20Jun2026 at 10:59:33 

     This program is part of the open-source Quantum ESPRESSO suite
     for quantum simulation of materials; please cite
         "P. Giannozzi et al., J. Phys.:Condens. Matter 21 395502 (2009);
         "P. Giannozzi et al., J. Phys.:Condens. Matter 29 465901 (2017);
         "P. Giannozzi et al., J. Chem. Phys. 152 154105 (2020);
          URL http://www.quantum-espresso.org", 
     in publications or presentations arising from this work. More details at
     http://www.quantum-espresso.org/quote

     Parallel version (MPI), running on    24 processors

     MPI processes distributed on     1 nodes
     6567 MiB available memory on the printing compute node when the environment starts

     Waiting for input...
     Reading input from standard input

     Current dimensions of program PWSCF are:
     Max number of different atomic species (ntypx) = 10
     Max number of k-points (npk) =  40000
     Max angular momentum in pseudopotentials (lmaxx) =  4
     file Mo.pbe-spn-kjpaw_psl.1.0.0.UPF: wavefunction(s)  4S 4D renormalized
     file Se.pbe-dn-kjpaw_psl.1.0.0.UPF: wavefunction(s)  4S 4P 3D renormalized

     IMPORTANT: XC functional enforced from input :
     Exchange-correlation= VDW-DF2-B86R
                           (   1   4  26   0   2   0   0)
     Any further DFT definition will be discarded
     Please, verify this is what you really want


     R & G space division:  proc/nbgrp/npool/nimage =      24
     Subspace diagonalization in iterative solution of the eigenvalue problem:
     a serial algorithm will be used


     Parallelization info
     --------------------
     sticks:   dense  smooth     PW     G-vecs:    dense   smooth      PW
     Min          69      35     10                35537    12585    1924
     Max          70      36     11                35620    12648    1981
     Sum        1675     847    241               853823   302525   46513

     Using Slab Decomposition



     bravais-lattice index     =            4
     lattice parameter (alat)  =       6.1794  a.u.
     unit-cell volume          =    3124.5879 (a.u.)^3
     number of atoms/cell      =            6
     number of atomic types    =            2
     number of electrons       =        92.00
     number of Kohn-Sham states=           55
     kinetic-energy cutoff     =      80.0000  Ry
     charge density cutoff     =     640.0000  Ry
     scf convergence threshold =      1.0E-08
     mixing beta               =       0.3000
     number of iterations used =            8  local-TF  mixing
     Exchange-correlation= VDW-DF2-B86R
                           (   1   4  26   0   2   0   0)

     celldm(1)=   6.179404  celldm(2)=   0.000000  celldm(3)=  15.290520
     celldm(4)=   0.000000  celldm(5)=   0.000000  celldm(6)=   0.000000

     crystal axes: (cart. coord. in units of alat)
               a(1) = (   1.000000   0.000000   0.000000 )  
               a(2) = (  -0.500000   0.866025   0.000000 )  
               a(3) = (   0.000000   0.000000  15.290520 )  

     reciprocal axes: (cart. coord. in units 2 pi/alat)
               b(1) = (  1.000000  0.577350 -0.000000 )  
               b(2) = (  0.000000  1.154701  0.000000 )  
               b(3) = (  0.000000 -0.000000  0.065400 )  


     PseudoPot. # 1 for Mo read from file:
     ./pseudo/Mo.pbe-spn-kjpaw_psl.1.0.0.UPF
     MD5 check sum: 4396e0c640fcce5c25f020efccf1ab12
     Pseudo is Projector augmented-wave + core cor, Zval = 14.0
     Generated using &quot;atomic&quot; code by A. Dal Corso  v.6.3
     Shape of augmentation charge: PSQ
     Using radial grid of 1229 points,  6 beta functions with: 
                l(1) =   0
                l(2) =   0
                l(3) =   1
                l(4) =   1
                l(5) =   2
                l(6) =   2
     Q(r) pseudized with 0 coefficients 


     PseudoPot. # 2 for Se read from file:
     ./pseudo/Se.pbe-dn-kjpaw_psl.1.0.0.UPF
     MD5 check sum: ac240dd2bae32a30e0bf3a38df9c8785
     Pseudo is Projector augmented-wave + core cor, Zval = 16.0
     Generated using &quot;atomic&quot; code by A. Dal Corso  v.6.3
     Shape of augmentation charge: PSQ
     Using radial grid of 1211 points,  6 beta functions with: 
                l(1) =   0
                l(2) =   0
                l(3) =   1
                l(4) =   1
                l(5) =   2
                l(6) =   2
     Q(r) pseudized with 0 coefficients 


     atomic species   valence    mass     pseudopotential
     Mo               14.00    95.96000     Mo( 1.00)
     Se               16.00    78.96000     Se( 1.00)

      6 Sym. Ops. (no inversion) found



   Cartesian axes

     site n.     atom                  positions (alat units)
         1        Se     tau(   1) = (  -0.0000005   0.5773506   6.1238532  )
         2        Mo     tau(   2) = (   0.0000000   0.0000000   6.6502752  )
         3        Se     tau(   3) = (   0.5000005   0.2886748   7.1775994  )
         4        Se     tau(   4) = (  -0.0000005   0.5773506   9.1520948  )
         5        Mo     tau(   5) = (   0.5000005   0.2886748   9.6792813  )
         6        Se     tau(   6) = (   0.0000000   0.0000000  10.2064220  )

     number of k points=    30  Methfessel-Paxton smearing, width (Ry)=  0.0200
                       cart. coord. in units 2pi/alat
        k(    1) = (   0.0000000   0.0000000   0.0000000), wk =   0.0078125
        k(    2) = (   0.0000000   0.0721688   0.0000000), wk =   0.0468750
        k(    3) = (   0.0000000   0.1443376   0.0000000), wk =   0.0468750
        k(    4) = (   0.0000000   0.2165064   0.0000000), wk =   0.0468750
        k(    5) = (   0.0000000   0.2886751   0.0000000), wk =   0.0468750
        k(    6) = (   0.0000000   0.3608439   0.0000000), wk =   0.0468750
        k(    7) = (   0.0000000   0.4330127   0.0000000), wk =   0.0468750
        k(    8) = (   0.0000000   0.5051815   0.0000000), wk =   0.0468750
        k(    9) = (   0.0000000  -0.5773503   0.0000000), wk =   0.0234375
        k(   10) = (   0.0625000   0.1082532   0.0000000), wk =   0.0468750
        k(   11) = (   0.0625000   0.1804220   0.0000000), wk =   0.0937500
        k(   12) = (   0.0625000   0.2525907   0.0000000), wk =   0.0937500
        k(   13) = (   0.0625000   0.3247595   0.0000000), wk =   0.0937500
        k(   14) = (   0.0625000   0.3969283   0.0000000), wk =   0.0937500
        k(   15) = (   0.0625000   0.4690971   0.0000000), wk =   0.0937500
        k(   16) = (   0.0625000   0.5412659   0.0000000), wk =   0.0937500
        k(   17) = (   0.1250000   0.2165064   0.0000000), wk =   0.0468750
        k(   18) = (   0.1250000   0.2886751   0.0000000), wk =   0.0937500
        k(   19) = (   0.1250000   0.3608439   0.0000000), wk =   0.0937500
        k(   20) = (   0.1250000   0.4330127   0.0000000), wk =   0.0937500
        k(   21) = (   0.1250000   0.5051815   0.0000000), wk =   0.0937500
        k(   22) = (   0.1250000   0.5773503   0.0000000), wk =   0.0468750
        k(   23) = (   0.1875000   0.3247595   0.0000000), wk =   0.0468750
        k(   24) = (   0.1875000   0.3969283   0.0000000), wk =   0.0937500
        k(   25) = (   0.1875000   0.4690971   0.0000000), wk =   0.0937500
        k(   26) = (   0.1875000   0.5412659   0.0000000), wk =   0.0937500
        k(   27) = (   0.2500000   0.4330127   0.0000000), wk =   0.0468750
        k(   28) = (   0.2500000   0.5051815   0.0000000), wk =   0.0937500
        k(   29) = (   0.2500000   0.5773503   0.0000000), wk =   0.0468750
        k(   30) = (   0.3125000   0.5412659   0.0000000), wk =   0.0468750

     Dense  grid:   853823 G-vectors     FFT dimensions: (  50,  50, 768)

     Smooth grid:   302525 G-vectors     FFT dimensions: (  36,  36, 540)

     Estimated max dynamical RAM per process >     171.88 MB

     Estimated total dynamical RAM >       4.03 GB

     Initial potential from superposition of free atoms

     starting charge      91.9979, renormalised to      92.0000

     negative rho (up, down):  1.800E-04 0.000E+00


     %%%%%%%%%%%%%%%%%%%%%%%%%%%%%%%%%%%%%%%%%%%%%%%%%%%%%%%%%%%%%%%%%%%%%%%%
     %                                                                      %
     % You are using vdW-DF, which was implemented by the Thonhauser group. %
     % Please cite the following two papers that made this development      %
     % possible and the two reviews that describe the various versions:     %
     %                                                                      %
     %   T. Thonhauser et al., PRL 115, 136402 (2015).                      %
     %   T. Thonhauser et al., PRB 76, 125112 (2007).                       %
     %   K. Berland et al., Rep. Prog. Phys. 78, 066501 (2015).             %
     %   D.C. Langreth et al., J. Phys.: Condens. Matter 21, 084203 (2009). %
     %                                                                      %
     % If you are calculating stress with vdW-DF, please also cite:         %
     %                                                                      %
     %   R. Sabatini et al., J. Phys.: Condens. Matter 24, 424209 (2012).   %
     %                                                                      %
     %%%%%%%%%%%%%%%%%%%%%%%%%%%%%%%%%%%%%%%%%%%%%%%%%%%%%%%%%%%%%%%%%%%%%%%%

     %%%%%%%%%%%%%%%%%%%%%%%%%%%%%%%%%%%%%%%%%%%%%%%%%%%%%%%%%%%%%%%%%%%%%%%%
     %                                                                      %
     %  vdW-DF NEWS:                                                        %
     %                                                                      %
     %  * vdW-DF3 is now available. DOI: 10.1021/acs.jctc.0c00471           %
     %    use with input_dft = 'vdW-DF3-opt1' or 'vdW-DF3-opt2'             %
     %                                                                      %
     %  * Unscreened and range-separated hybrid vdW-DF-cx functionals       %
     %    DOI: 10.1063/1.4986522 and 10.1088/1361-648X/ac2ad2               %
     %    use with input_dft = 'vdW-DF-cx0'    and 'vdW-DF-ahcx'            %
     %  * Unscreened and range-separated hybrid vdW-DF2-b86r functionals    %
     %    DOI: 10.1063/1.4986522 and DOI: 10.1103/PhysRevX.12.041003        %
     %    use with input_dft = 'vdW-DF2-br0' and 'vdW-DF2-ahbr'             %
     %                                                                      %
     %%%%%%%%%%%%%%%%%%%%%%%%%%%%%%%%%%%%%%%%%%%%%%%%%%%%%%%%%%%%%%%%%%%%%%%%


     Starting wfcs are   56 randomized atomic wfcs
     Checking if some PAW data can be deallocated... 

     total cpu time spent up to now is       12.1 secs

     per-process dynamical memory:    79.7 Mb

     Self-consistent Calculation

     iteration #  1     ecut=    80.00 Ry     beta= 0.30
     Davidson diagonalization with overlap
     ethr =  1.00E-02,  avg # of iterations =  4.6

     Threshold (ethr) on eigenvalues was too large:
     Diagonalizing with lowered threshold

     Davidson diagonalization with overlap
     ethr =  4.48E-04,  avg # of iterations =  2.1

     negative rho (up, down):  5.040E-05 0.000E+00

     total cpu time spent up to now is       49.9 secs

     total energy              =   -2326.96318204 Ry
     estimated scf accuracy    <       0.45968699 Ry

     iteration #  2     ecut=    80.00 Ry     beta= 0.30
     Davidson diagonalization with overlap
     ethr =  5.00E-04,  avg # of iterations =  1.1

     negative rho (up, down):  3.446E-05 0.000E+00

     total cpu time spent up to now is       65.4 secs

     total energy              =   -2326.91740557 Ry
     estimated scf accuracy    <       0.23980316 Ry

     iteration #  3     ecut=    80.00 Ry     beta= 0.30
     Davidson diagonalization with overlap
     ethr =  2.61E-04,  avg # of iterations =  2.9

     negative rho (up, down):  1.246E-05 0.000E+00

     total cpu time spent up to now is       83.9 secs

     total energy              =   -2326.92401613 Ry
     estimated scf accuracy    <       0.03138342 Ry

     iteration #  4     ecut=    80.00 Ry     beta= 0.30
     Davidson diagonalization with overlap
     c_bands:  1 eigenvalues not converged
     ethr =  3.41E-05,  avg # of iterations =  8.5

     negative rho (up, down):  5.196E-06 0.000E+00

     total cpu time spent up to now is      105.5 secs

     total energy              =   -2326.92411734 Ry
     estimated scf accuracy    <       0.00972670 Ry

     iteration #  5     ecut=    80.00 Ry     beta= 0.30
     Davidson diagonalization with overlap
     c_bands:  1 eigenvalues not converged
     ethr =  1.06E-05,  avg # of iterations =  4.6

     negative rho (up, down):  9.330E-07 0.000E+00

     total cpu time spent up to now is      128.0 secs

     total energy              =   -2326.92335096 Ry
     estimated scf accuracy    <       0.00379135 Ry

     iteration #  6     ecut=    80.00 Ry     beta= 0.30
     Davidson diagonalization with overlap
     ethr =  4.12E-06,  avg # of iterations =  9.8

     negative rho (up, down):  4.584E-07 0.000E+00

     total cpu time spent up to now is      151.6 secs

     total energy              =   -2326.92341573 Ry
     estimated scf accuracy    <       0.00135897 Ry

     iteration #  7     ecut=    80.00 Ry     beta= 0.30
     Davidson diagonalization with overlap
     ethr =  1.48E-06,  avg # of iterations =  3.5

     negative rho (up, down):  3.114E-07 0.000E+00

     total cpu time spent up to now is      169.8 secs

     total energy              =   -2326.92331756 Ry
     estimated scf accuracy    <       0.00125604 Ry

     iteration #  8     ecut=    80.00 Ry     beta= 0.30
     Davidson diagonalization with overlap
     ethr =  1.37E-06,  avg # of iterations =  6.1

     negative rho (up, down):  1.249E-07 0.000E+00

     total cpu time spent up to now is      188.7 secs

     total energy              =   -2326.92327532 Ry
     estimated scf accuracy    <       0.00100213 Ry

     iteration #  9     ecut=    80.00 Ry     beta= 0.30
     Davidson diagonalization with overlap
     ethr =  1.09E-06,  avg # of iterations =  1.1

     negative rho (up, down):  3.305E-03 0.000E+00

     total cpu time spent up to now is      204.2 secs

     total energy              =   -2326.92320814 Ry
     estimated scf accuracy    <       0.00077573 Ry

     iteration # 10     ecut=    80.00 Ry     beta= 0.30
     Davidson diagonalization with overlap
     ethr =  8.43E-07,  avg # of iterations =  1.8

     negative rho (up, down):  5.486E-03 0.000E+00

     total cpu time spent up to now is      221.6 secs

     total energy              =   -2326.92314130 Ry
     estimated scf accuracy    <       0.00050981 Ry

     iteration # 11     ecut=    80.00 Ry     beta= 0.30
     Davidson diagonalization with overlap
     ethr =  5.54E-07,  avg # of iterations =  2.2

     negative rho (up, down):  6.752E-03 0.000E+00

     total cpu time spent up to now is      240.1 secs

     total energy              =   -2326.92310429 Ry
     estimated scf accuracy    <       0.00032966 Ry

     iteration # 12     ecut=    80.00 Ry     beta= 0.30
     Davidson diagonalization with overlap
     ethr =  3.58E-07,  avg # of iterations =  5.3

     negative rho (up, down):  4.854E-03 0.000E+00

     total cpu time spent up to now is      259.2 secs

     total energy              =   -2326.92312247 Ry
     estimated scf accuracy    <       0.00019226 Ry

     iteration # 13     ecut=    80.00 Ry     beta= 0.30
     Davidson diagonalization with overlap
     ethr =  2.09E-07,  avg # of iterations =  1.0

     negative rho (up, down):  1.828E-03 0.000E+00

     total cpu time spent up to now is      274.7 secs

     total energy              =   -2326.92309803 Ry
     estimated scf accuracy    <       0.00016361 Ry

     iteration # 14     ecut=    80.00 Ry     beta= 0.30
     Davidson diagonalization with overlap
     ethr =  1.78E-07,  avg # of iterations =  2.3

     negative rho (up, down):  2.062E-03 0.000E+00

     total cpu time spent up to now is      292.0 secs

     total energy              =   -2326.92308336 Ry
     estimated scf accuracy    <       0.00009475 Ry

     iteration # 15     ecut=    80.00 Ry     beta= 0.30
     Davidson diagonalization with overlap
     ethr =  1.03E-07,  avg # of iterations =  1.0

     negative rho (up, down):  1.912E-03 0.000E+00

     total cpu time spent up to now is      307.5 secs

     total energy              =   -2326.92309944 Ry
     estimated scf accuracy    <       0.00006931 Ry

     iteration # 16     ecut=    80.00 Ry     beta= 0.30
     Davidson diagonalization with overlap
     ethr =  7.53E-08,  avg # of iterations =  2.9

     negative rho (up, down):  1.464E-03 0.000E+00

     total cpu time spent up to now is      326.0 secs

     total energy              =   -2326.92311073 Ry
     estimated scf accuracy    <       0.00002547 Ry

     iteration # 17     ecut=    80.00 Ry     beta= 0.30
     Davidson diagonalization with overlap
     ethr =  2.77E-08,  avg # of iterations =  2.0

     negative rho (up, down):  7.862E-04 0.000E+00

     total cpu time spent up to now is      343.1 secs

     total energy              =   -2326.92312107 Ry
     estimated scf accuracy    <       0.00000667 Ry

     iteration # 18     ecut=    80.00 Ry     beta= 0.30
     Davidson diagonalization with overlap
     ethr =  7.25E-09,  avg # of iterations =  2.2

     negative rho (up, down):  3.964E-04 0.000E+00

     total cpu time spent up to now is      363.4 secs

     total energy              =   -2326.92312519 Ry
     estimated scf accuracy    <       0.00000132 Ry

     iteration # 19     ecut=    80.00 Ry     beta= 0.30
     Davidson diagonalization with overlap
     ethr =  1.43E-09,  avg # of iterations =  2.2

     negative rho (up, down):  3.167E-04 0.000E+00

     total cpu time spent up to now is      382.8 secs

     total energy              =   -2326.92312588 Ry
     estimated scf accuracy    <       0.00000041 Ry

     iteration # 20     ecut=    80.00 Ry     beta= 0.30
     Davidson diagonalization with overlap
     ethr =  4.47E-10,  avg # of iterations =  2.3

     negative rho (up, down):  2.440E-04 0.000E+00

     total cpu time spent up to now is      401.9 secs

     total energy              =   -2326.92312537 Ry
     estimated scf accuracy    <       0.00000021 Ry

     iteration # 21     ecut=    80.00 Ry     beta= 0.30
     Davidson diagonalization with overlap
     ethr =  2.31E-10,  avg # of iterations =  2.2

     negative rho (up, down):  2.289E-04 0.000E+00

     total cpu time spent up to now is      421.3 secs

     total energy              =   -2326.92312540 Ry
     estimated scf accuracy    <       0.00000003 Ry

     iteration # 22     ecut=    80.00 Ry     beta= 0.30
     Davidson diagonalization with overlap
     ethr =  3.68E-11,  avg # of iterations =  2.0

     negative rho (up, down):  2.120E-04 0.000E+00

     total cpu time spent up to now is      440.4 secs

     End of self-consistent calculation

          k = 0.0000 0.0000 0.0000 ( 37787 PWs)   bands (ev):

   -61.8989 -61.8980 -48.2947 -48.2947 -48.2933 -48.2933 -48.2929 -48.2929
   -48.2918 -48.2918 -48.2493 -48.2493 -48.2477 -48.2477 -48.2476 -48.2476
   -48.2463 -48.2463 -48.2307 -48.2290 -48.2290 -48.2276 -36.0174 -36.0163
   -35.9020 -35.9020 -35.9007 -35.9007 -15.2966 -15.2930 -14.4782 -14.4766
    -6.4413  -6.4351  -3.3634  -3.3634  -3.3573  -3.3573  -3.3566  -3.3234
    -1.6101  -1.5779  -1.0671  -1.0671  -1.0642  -1.0642   0.2268   0.2268
     0.2296   0.2296   2.8016   2.9454   2.9454   2.9475   2.9475

          k = 0.0000 0.0722 0.0000 ( 37755 PWs)   bands (ev):

   -61.8980 -61.8970 -48.2947 -48.2945 -48.2933 -48.2931 -48.2929 -48.2927
   -48.2918 -48.2916 -48.2494 -48.2494 -48.2478 -48.2477 -48.2477 -48.2476
   -48.2464 -48.2463 -48.2306 -48.2289 -48.2289 -48.2276 -36.0152 -36.0141
   -35.9126 -35.9113 -35.9045 -35.9031 -15.2398 -15.2363 -14.4487 -14.4471
    -6.3635  -6.3573  -3.8404  -3.8283  -3.3314  -3.3253  -2.9461  -2.9250
    -1.6446  -1.6191  -1.2578  -1.2532  -1.2141  -1.2109   0.1147   0.1239
     0.3397   0.3423   2.5853   2.6344   2.8968   2.8988   2.9529

          k = 0.0000 0.1443 0.0000 ( 37697 PWs)   bands (ev):

   -61.8952 -61.8943 -48.2946 -48.2939 -48.2932 -48.2929 -48.2925 -48.2922
   -48.2918 -48.2911 -48.2496 -48.2494 -48.2479 -48.2479 -48.2478 -48.2477
   -48.2465 -48.2464 -48.2304 -48.2287 -48.2286 -48.2273 -36.0088 -36.0077
   -35.9428 -35.9414 -35.9114 -35.9100 -15.0734 -15.0700 -14.3626 -14.3608
    -6.1383  -6.1320  -4.3241  -4.3151  -3.2561  -3.2500  -2.7254  -2.7072
    -2.0823  -2.0756  -1.5015  -1.4981  -1.4691  -1.4493  -0.0105   0.0092
     0.5303   0.5321   1.9943   2.0496   2.7970   2.7988   3.2183

          k = 0.0000 0.2165 0.0000 ( 37653 PWs)   bands (ev):

   -61.8911 -61.8902 -48.2946 -48.2932 -48.2931 -48.2928 -48.2917 -48.2917
   -48.2914 -48.2903 -48.2499 -48.2495 -48.2482 -48.2481 -48.2479 -48.2478
   -48.2467 -48.2465 -48.2300 -48.2283 -48.2282 -48.2269 -35.9996 -35.9985
   -35.9872 -35.9858 -35.9218 -35.9204 -14.8105 -14.8071 -14.2262 -14.2243
    -5.7975  -5.7914  -4.7523  -4.7453  -3.2605  -3.2570  -3.2044  -3.1985
    -2.4456  -2.4291  -1.7252  -1.7214  -1.5665  -1.5529  -0.0443  -0.0204
     0.6367   0.6380   1.6238   1.6971   2.7315   2.7333   3.5946

          k = 0.0000 0.2887 0.0000 ( 37721 PWs)   bands (ev):

   -61.8863 -61.8853 -48.2946 -48.2932 -48.2928 -48.2922 -48.2917 -48.2908
   -48.2905 -48.2894 -48.2502 -48.2497 -48.2485 -48.2484 -48.2480 -48.2479
   -48.2470 -48.2466 -48.2295 -48.2278 -48.2278 -48.2265 -36.0403 -36.0389
   -35.9877 -35.9866 -35.9340 -35.9326 -14.4772 -14.4740 -14.0484 -14.0461
    -5.4855  -5.4800  -4.9917  -4.9859  -4.2823  -4.2788  -3.2588  -3.2531
    -2.6280  -2.6169  -1.8155  -1.8089  -1.7687  -1.7647   0.0367   0.0611
     0.6416   0.6427   1.7207   1.8117   2.7327   2.7345   4.0612

          k = 0.0000 0.3608 0.0000 ( 37749 PWs)   bands (ev):

   -61.8814 -61.8805 -48.2946 -48.2931 -48.2928 -48.2917 -48.2913 -48.2900
   -48.2896 -48.2885 -48.2506 -48.2498 -48.2489 -48.2486 -48.2481 -48.2481
   -48.2472 -48.2466 -48.2291 -48.2274 -48.2273 -48.2260 -36.0923 -36.0908
   -35.9764 -35.9753 -35.9461 -35.9447 -14.1289 -14.1257 -13.8290 -13.8265
    -5.6016  -5.5970  -5.2396  -5.2363  -4.7275  -4.7223  -3.4074  -3.4019
    -2.9852  -2.9792  -2.0796  -2.0750  -1.6634  -1.6594   0.2986   0.3189
     0.6184   0.6197   2.1359   2.2335   2.7692   2.7713   4.5860

          k = 0.0000 0.4330 0.0000 ( 37785 PWs)   bands (ev):

   -61.8773 -61.8764 -48.2946 -48.2931 -48.2929 -48.2916 -48.2906 -48.2892
   -48.2888 -48.2877 -48.2509 -48.2499 -48.2492 -48.2488 -48.2482 -48.2481
   -48.2474 -48.2467 -48.2287 -48.2270 -48.2270 -48.2256 -36.1360 -36.1345
   -35.9667 -35.9657 -35.9564 -35.9550 -13.8651 -13.8617 -13.5501 -13.5475
    -6.2019  -6.1980  -5.5796  -5.5760  -4.5369  -4.5336  -3.5665  -3.5612
    -3.2387  -3.2338  -2.2521  -2.2491  -1.5295  -1.5259   0.6328   0.6346
     0.6673   0.6810   2.6585   2.7444   2.8057   2.8081   4.9604

          k = 0.0000 0.5052 0.0000 ( 37822 PWs)   bands (ev):

   -61.8745 -61.8736 -48.2946 -48.2931 -48.2929 -48.2916 -48.2901 -48.2887
   -48.2883 -48.2872 -48.2511 -48.2499 -48.2494 -48.2489 -48.2482 -48.2482
   -48.2475 -48.2468 -48.2285 -48.2267 -48.2267 -48.2254 -36.1651 -36.1635
   -35.9633 -35.9619 -35.9603 -35.9592 -13.7199 -13.7163 -13.2882 -13.2857
    -6.7595  -6.7556  -5.6007  -5.5980  -4.7037  -4.7011  -3.6786  -3.6733
    -3.1180  -3.1137  -2.3795  -2.3779  -1.4422  -1.4390   0.6819   0.6841
     1.0123   1.0194   2.8283   2.8308   3.1251   3.1776   4.6308

          k = 0.0000-0.5774 0.0000 ( 37832 PWs)   bands (ev):

   -61.8736 -61.8726 -48.2946 -48.2931 -48.2929 -48.2916 -48.2899 -48.2885
   -48.2881 -48.2870 -48.2512 -48.2500 -48.2495 -48.2490 -48.2483 -48.2482
   -48.2475 -48.2468 -48.2284 -48.2266 -48.2266 -48.2253 -36.1752 -36.1737
   -35.9657 -35.9643 -35.9580 -35.9570 -13.6724 -13.6687 -13.1816 -13.1791
    -6.9647  -6.9608  -5.5710  -5.5689  -4.8465  -4.8437  -3.7182  -3.7130
    -2.9886  -2.9854  -2.4478  -2.4466  -1.4145  -1.4114   0.7094   0.7119
     1.1615   1.1643   2.8355   2.8382   3.3623   3.3844   4.3155

          k = 0.0625 0.1083 0.0000 ( 37709 PWs)   bands (ev):

   -61.8961 -61.8952 -48.2946 -48.2941 -48.2932 -48.2929 -48.2927 -48.2924
   -48.2918 -48.2913 -48.2495 -48.2494 -48.2479 -48.2478 -48.2478 -48.2477
   -48.2465 -48.2464 -48.2305 -48.2288 -48.2287 -48.2274 -36.0109 -36.0098
   -35.9327 -35.9313 -35.9095 -35.9081 -15.1281 -15.1247 -14.3909 -14.3892
    -6.2116  -6.2054  -4.1956  -4.1859  -3.2849  -3.2788  -2.7472  -2.7264
    -1.8822  -1.8749  -1.5024  -1.4980  -1.3919  -1.3752   0.0515   0.0687
     0.4300   0.4320   2.2218   2.2750   2.7496   2.7552   3.1424

          k = 0.0625 0.1804 0.0000 ( 37703 PWs)   bands (ev):

   -61.8927 -61.8918 -48.2946 -48.2935 -48.2932 -48.2928 -48.2921 -48.2917
   -48.2917 -48.2906 -48.2498 -48.2495 -48.2481 -48.2480 -48.2479 -48.2478
   -48.2467 -48.2465 -48.2301 -48.2284 -48.2284 -48.2271 -36.0029 -36.0018
   -35.9693 -35.9679 -35.9189 -35.9176 -14.9131 -14.9097 -14.2798 -14.2780
    -5.9236  -5.9174  -4.6080  -4.6004  -3.2792  -3.2734  -2.8170  -2.8083
    -2.4590  -2.4513  -1.7586  -1.7516  -1.4241  -1.4071   0.0483   0.0695
     0.4289   0.4329   1.8978   1.9617   2.5759   2.5818   3.4597

          k = 0.0625 0.2526 0.0000 ( 37702 PWs)   bands (ev):

   -61.8882 -61.8873 -48.2945 -48.2931 -48.2928 -48.2927 -48.2917 -48.2913
   -48.2909 -48.2898 -48.2501 -48.2496 -48.2483 -48.2483 -48.2480 -48.2479
   -48.2469 -48.2466 -48.2297 -48.2280 -48.2280 -48.2266 -36.0171 -36.0156
   -35.9923 -35.9912 -35.9313 -35.9299 -14.6129 -14.6096 -14.1238 -14.1217
    -5.5559  -5.5499  -4.9514  -4.9452  -3.8381  -3.8343  -3.2251  -3.2201
    -2.6055  -2.5968  -1.9678  -1.9623  -1.4513  -1.4414  -0.0147   0.0048
     0.5044   0.5155   1.7881   1.8573   2.5414   2.5569   3.8792

          k = 0.0625 0.3248 0.0000 ( 37734 PWs)   bands (ev):

   -61.8834 -61.8824 -48.2945 -48.2931 -48.2928 -48.2918 -48.2916 -48.2904
   -48.2900 -48.2889 -48.2504 -48.2497 -48.2487 -48.2485 -48.2481 -48.2480
   -48.2471 -48.2466 -48.2293 -48.2276 -48.2275 -48.2262 -36.0680 -36.0665
   -35.9810 -35.9800 -35.9447 -35.9433 -14.2646 -14.2613 -13.9303 -13.9279
    -5.4480  -5.4429  -4.9272  -4.9226  -4.7825  -4.7786  -3.4644  -3.4598
    -2.7295  -2.7236  -2.2815  -2.2786  -1.4382  -1.4327   0.0372   0.0545
     0.6545   0.6630   1.9258   1.9930   2.6254   2.6566   4.3805

          k = 0.0625 0.3969 0.0000 ( 37770 PWs)   bands (ev):

   -61.8789 -61.8779 -48.2945 -48.2930 -48.2927 -48.2915 -48.2910 -48.2896
   -48.2892 -48.2881 -48.2507 -48.2499 -48.2490 -48.2487 -48.2481 -48.2481
   -48.2473 -48.2467 -48.2289 -48.2271 -48.2271 -48.2258 -36.1147 -36.1132
   -35.9706 -35.9695 -35.9570 -35.9556 -13.9484 -13.9451 -13.6861 -13.6835
    -5.8177  -5.8136  -5.4835  -5.4797  -4.5616  -4.5572  -3.7094  -3.7051
    -2.9922  -2.9886  -2.4996  -2.4970  -1.3688  -1.3653   0.2377   0.2487
     0.8126   0.8191   2.2274   2.2694   2.7854   2.8384   4.8933

          k = 0.0625 0.4691 0.0000 ( 37798 PWs)   bands (ev):

   -61.8754 -61.8745 -48.2945 -48.2930 -48.2927 -48.2915 -48.2904 -48.2890
   -48.2886 -48.2875 -48.2510 -48.2500 -48.2493 -48.2489 -48.2482 -48.2482
   -48.2474 -48.2468 -48.2285 -48.2268 -48.2268 -48.2255 -36.1502 -36.1487
   -35.9668 -35.9654 -35.9622 -35.9611 -13.7509 -13.7474 -13.4005 -13.3979
    -6.4727  -6.4689  -5.5898  -5.5866  -4.5553  -4.5526  -3.8032  -3.7986
    -3.1070  -3.1033  -2.6047  -2.6027  -1.3283  -1.3257   0.4831   0.4881
     0.9954   1.0007   2.4707   2.4823   3.0398   3.0964   5.0243

          k = 0.0625 0.5413 0.0000 ( 37791 PWs)   bands (ev):

   -61.8736 -61.8726 -48.2945 -48.2929 -48.2928 -48.2914 -48.2900 -48.2886
   -48.2883 -48.2872 -48.2511 -48.2500 -48.2494 -48.2489 -48.2483 -48.2482
   -48.2475 -48.2468 -48.2284 -48.2266 -48.2266 -48.2253 -36.1694 -36.1679
   -35.9717 -35.9703 -35.9580 -35.9570 -13.6578 -13.6541 -13.2053 -13.2027
    -6.8595  -6.8557  -5.5721  -5.5697  -4.7651  -4.7623  -3.8208  -3.8160
    -2.9934  -2.9903  -2.6769  -2.6753  -1.3292  -1.3270   0.6650   0.6674
     1.1261   1.1293   2.5736   2.5764   3.2984   3.3275   4.6022

          k = 0.1250 0.2165 0.0000 ( 37731 PWs)   bands (ev):

   -61.8889 -61.8880 -48.2945 -48.2931 -48.2929 -48.2927 -48.2916 -48.2915
   -48.2911 -48.2900 -48.2500 -48.2496 -48.2483 -48.2482 -48.2480 -48.2479
   -48.2468 -48.2466 -48.2298 -48.2281 -48.2280 -48.2267 -36.0072 -36.0058
   -35.9941 -35.9930 -35.9319 -35.9305 -14.6595 -14.6562 -14.1497 -14.1476
    -5.5867  -5.5806  -4.9191  -4.9127  -3.6965  -3.6920  -3.0142  -3.0075
    -2.8663  -2.8621  -1.9378  -1.9284  -1.3326  -1.3182   0.0457   0.0548
     0.2988   0.3216   2.1120   2.1809   2.1827   2.1985   3.8226

          k = 0.1250 0.2887 0.0000 ( 37723 PWs)   bands (ev):

   -61.8844 -61.8835 -48.2944 -48.2929 -48.2926 -48.2921 -48.2915 -48.2907
   -48.2904 -48.2893 -48.2503 -48.2497 -48.2486 -48.2484 -48.2481 -48.2480
   -48.2470 -48.2467 -48.2294 -48.2277 -48.2276 -48.2263 -36.0507 -36.0493
   -35.9838 -35.9827 -35.9478 -35.9465 -14.3370 -14.3338 -13.9825 -13.9801
    -5.2722  -5.2668  -5.0833  -5.0777  -4.4643  -4.4604  -3.4646  -3.4606
    -2.9560  -2.9522  -2.2033  -2.1983  -1.2036  -1.1932  -0.1695  -0.1559
     0.5939   0.6123   1.8630   1.8773   2.4242   2.5068   4.2799

          k = 0.1250 0.3608 0.0000 ( 37761 PWs)   bands (ev):

   -61.8799 -61.8790 -48.2943 -48.2928 -48.2925 -48.2914 -48.2913 -48.2900
   -48.2896 -48.2885 -48.2506 -48.2498 -48.2489 -48.2486 -48.2482 -48.2481
   -48.2472 -48.2468 -48.2290 -48.2272 -48.2272 -48.2259 -36.0936 -36.0922
   -35.9739 -35.9729 -35.9636 -35.9622 -13.9969 -13.9937 -13.7815 -13.7789
    -5.4746  -5.4700  -5.2641  -5.2606  -4.6691  -4.6638  -3.8523  -3.8486
    -3.0553  -3.0521  -2.6321  -2.6297  -1.0704  -1.0638  -0.1334  -0.1212
     0.8810   0.8915   1.7807   1.7961   2.7342   2.8164   4.7993

          k = 0.1250 0.4330 0.0000 ( 37768 PWs)   bands (ev):

   -61.8761 -61.8752 -48.2941 -48.2926 -48.2924 -48.2912 -48.2908 -48.2894
   -48.2890 -48.2879 -48.2509 -48.2500 -48.2492 -48.2488 -48.2483 -48.2483
   -48.2474 -48.2468 -48.2286 -48.2269 -48.2269 -48.2255 -36.1297 -36.1282
   -35.9789 -35.9775 -35.9637 -35.9626 -13.7469 -13.7436 -13.5184 -13.5157
    -6.0641  -6.0603  -5.5233  -5.5195  -4.3975  -4.3942  -4.0795  -4.0755
    -3.1668  -3.1641  -2.9806  -2.9781  -1.0366  -1.0330   0.1122   0.1207
     1.0748   1.0794   1.8926   1.9049   3.0250   3.0889   5.2303

          k = 0.1250 0.5052 0.0000 ( 37794 PWs)   bands (ev):

   -61.8736 -61.8726 -48.2941 -48.2926 -48.2924 -48.2911 -48.2904 -48.2890
   -48.2886 -48.2875 -48.2510 -48.2501 -48.2493 -48.2489 -48.2484 -48.2483
   -48.2474 -48.2469 -48.2284 -48.2267 -48.2266 -48.2253 -36.1536 -36.1521
   -35.9880 -35.9866 -35.9580 -35.9570 -13.6151 -13.6115 -13.2694 -13.2667
    -6.5674  -6.5636  -5.5564  -5.5534  -4.5699  -4.5671  -4.0311  -4.0271
    -3.2480  -3.2457  -3.0445  -3.0417  -1.0930  -1.0910   0.4525   0.4571
     1.1255   1.1277   2.0627   2.0695   3.2302   3.2637   5.1646

          k = 0.1250 0.5774 0.0000 ( 37780 PWs)   bands (ev):

   -61.8727 -61.8717 -48.2941 -48.2925 -48.2924 -48.2911 -48.2902 -48.2888
   -48.2884 -48.2873 -48.2511 -48.2501 -48.2494 -48.2489 -48.2484 -48.2483
   -48.2475 -48.2469 -48.2283 -48.2266 -48.2265 -48.2252 -36.1619 -36.1604
   -35.9912 -35.9898 -35.9560 -35.9550 -13.5714 -13.5678 -13.1701 -13.1674
    -6.7509  -6.7471  -5.5483  -5.5457  -4.6845  -4.6816  -4.0275  -4.0234
    -3.2772  -3.2750  -2.9988  -2.9964  -1.1319  -1.1303   0.6558   0.6577
     1.0770   1.0790   2.1484   2.1506   3.3041   3.3214   4.9716

          k = 0.1875 0.3248 0.0000 ( 37725 PWs)   bands (ev):

   -61.8803 -61.8794 -48.2941 -48.2927 -48.2923 -48.2916 -48.2912 -48.2902
   -48.2898 -48.2887 -48.2506 -48.2498 -48.2489 -48.2486 -48.2482 -48.2481
   -48.2472 -48.2468 -48.2290 -48.2273 -48.2272 -48.2259 -36.0841 -36.0827
   -35.9760 -35.9749 -35.9672 -35.9659 -14.0122 -14.0091 -13.8162 -13.8135
    -5.3424  -5.3375  -5.0955  -5.0917  -4.7581  -4.7528  -3.8554  -3.8522
    -3.3361  -3.3321  -2.5127  -2.5105  -0.9035  -0.8944  -0.3130  -0.3011
     0.8775   0.8911   1.5994   1.6052   2.7181   2.8087   4.7618

          k = 0.1875 0.3969 0.0000 ( 37753 PWs)   bands (ev):

   -61.8765 -61.8756 -48.2938 -48.2924 -48.2921 -48.2911 -48.2909 -48.2897
   -48.2894 -48.2883 -48.2508 -48.2500 -48.2491 -48.2488 -48.2483 -48.2483
   -48.2473 -48.2469 -48.2286 -48.2269 -48.2269 -48.2256 -36.1129 -36.1114
   -35.9912 -35.9898 -35.9645 -35.9635 -13.7093 -13.7061 -13.6188 -13.6159
    -5.6952  -5.6914  -5.4460  -5.4417  -4.3571  -4.3526  -4.2071  -4.2041
    -3.6618  -3.6583  -2.9110  -2.9096  -0.6953  -0.6896  -0.2433  -0.2344
     1.1028   1.1096   1.5167   1.5260   3.0247   3.0928   5.2633

          k = 0.1875 0.4691 0.0000 ( 37759 PWs)   bands (ev):

   -61.8736 -61.8726 -48.2936 -48.2921 -48.2919 -48.2908 -48.2906 -48.2894
   -48.2890 -48.2879 -48.2509 -48.2501 -48.2492 -48.2489 -48.2484 -48.2484
   -48.2475 -48.2469 -48.2284 -48.2267 -48.2266 -48.2253 -36.1338 -36.1323
   -36.0083 -36.0069 -35.9580 -35.9570 -13.5489 -13.5455 -13.3565 -13.3537
    -6.1795  -6.1758  -5.5132  -5.5095  -4.4290  -4.4258  -4.1204  -4.1170
    -3.8872  -3.8843  -3.1811  -3.1793  -0.7454  -0.7425   0.1006   0.1060
     1.1456   1.1480   1.6671   1.6776   3.2097   3.2433   5.5287

          k = 0.1875 0.5413 0.0000 ( 37793 PWs)   bands (ev):

   -61.8720 -61.8711 -48.2935 -48.2920 -48.2918 -48.2906 -48.2905 -48.2892
   -48.2889 -48.2878 -48.2510 -48.2502 -48.2493 -48.2490 -48.2486 -48.2484
   -48.2475 -48.2470 -48.2282 -48.2265 -48.2265 -48.2252 -36.1447 -36.1432
   -36.0179 -36.0165 -35.9544 -35.9534 -13.4713 -13.4678 -13.1870 -13.1842
    -6.4568  -6.4531  -5.5416  -5.5384  -4.5225  -4.5193  -4.1630  -4.1599
    -3.9618  -3.9595  -3.2022  -3.2001  -0.8327  -0.8310   0.4692   0.4714
     0.9986   1.0002   1.8804   1.8865   3.2174   3.2306   5.5364

          k = 0.2500 0.4330 0.0000 ( 37711 PWs)   bands (ev):

   -61.8736 -61.8726 -48.2934 -48.2919 -48.2916 -48.2910 -48.2904 -48.2896
   -48.2892 -48.2881 -48.2509 -48.2501 -48.2492 -48.2489 -48.2484 -48.2484
   -48.2475 -48.2470 -48.2284 -48.2267 -48.2266 -48.2253 -36.1233 -36.1219
   -36.0189 -36.0175 -35.9580 -35.9570 -13.4871 -13.4838 -13.4268 -13.4239
    -5.9590  -5.9552  -5.4817  -5.4777  -4.4105  -4.4077  -4.2505  -4.2473
    -4.0462  -4.0424  -3.2767  -3.2754  -0.3365  -0.3305  -0.3131  -0.3106
     1.1402   1.1439   1.5416   1.5529   3.2087   3.2417   5.6605

          k = 0.2500 0.5052 0.0000 ( 37776 PWs)   bands (ev):

   -61.8716 -61.8707 -48.2930 -48.2915 -48.2912 -48.2910 -48.2900 -48.2896
   -48.2893 -48.2882 -48.2509 -48.2503 -48.2492 -48.2490 -48.2486 -48.2484
   -48.2476 -48.2470 -48.2282 -48.2265 -48.2265 -48.2251 -36.1259 -36.1244
   -36.0420 -36.0405 -35.9536 -35.9526 -13.3774 -13.3740 -13.2398 -13.2369
    -6.1067  -6.1030  -5.5334  -5.5296  -4.6700  -4.6665  -4.3876  -4.3852
    -3.9719  -3.9694  -3.5145  -3.5129  -0.4368  -0.4345   0.0594   0.0611
     0.9619   0.9635   1.8330   1.8448   3.1513   3.1585   5.7041

          k = 0.2500 0.5774 0.0000 ( 37791 PWs)   bands (ev):

   -61.8709 -61.8700 -48.2928 -48.2914 -48.2911 -48.2910 -48.2898 -48.2897
   -48.2893 -48.2882 -48.2509 -48.2504 -48.2492 -48.2491 -48.2487 -48.2484
   -48.2477 -48.2470 -48.2281 -48.2264 -48.2264 -48.2251 -36.1253 -36.1238
   -36.0515 -36.0501 -35.9521 -35.9510 -13.3387 -13.3353 -13.1700 -13.1670
    -6.1496  -6.1460  -5.5636  -5.5598  -4.8230  -4.8194  -4.2079  -4.2057
    -4.1880  -4.1859  -3.5153  -3.5134  -0.4873  -0.4857   0.3185   0.3190
     0.7547   0.7567   2.0553   2.0610   3.0157   3.0199   5.6469

          k = 0.3125 0.5413 0.0000 ( 37789 PWs)   bands (ev):

   -61.8706 -61.8696 -48.2924 -48.2915 -48.2908 -48.2906 -48.2900 -48.2898
   -48.2893 -48.2886 -48.2508 -48.2505 -48.2492 -48.2491 -48.2488 -48.2484
   -48.2477 -48.2470 -48.2281 -48.2264 -48.2264 -48.2250 -36.1078 -36.1064
   -36.0740 -36.0725 -35.9512 -35.9502 -13.2593 -13.2559 -13.1974 -13.1943
    -5.8454  -5.8418  -5.5733  -5.5693  -5.2626  -5.2592  -4.2209  -4.2188
    -3.8830  -3.8807  -3.8799  -3.8787  -0.1500  -0.1478   0.0278   0.0289
     0.6551   0.6573   2.2610   2.2712   2.8284   2.8334   5.6024

     the Fermi energy is    -0.2988 ev

!    total energy              =   -2326.92312548 Ry
     total all-electron energy =    -35628.670954 Ry
     estimated scf accuracy    <          8.9E-09 Ry
     smearing contrib. (-TS)   =       0.00089386 Ry
     internal energy E=F+TS    =   -2326.92401934 Ry

     The total energy is F=E-TS. E is the sum of the following terms:
     one-electron contribution =  -22601.30970108 Ry
     hartree contribution      =   11288.87558700 Ry
     xc contribution           =    -152.42369148 Ry
     ewald contribution        =   10148.44826060 Ry
     one-center paw contrib.   =   -1010.51447437 Ry

     convergence has been achieved in  22 iterations

     Writing all to output data dir ./tmp/cleave_017/mose2_cleave_017.save/ :
     XML data file, charge density, pseudopotentials, collected wavefunctions

     init_run     :     11.69s CPU     11.88s WALL (       1 calls)
     electrons    :    421.24s CPU    428.40s WALL (       1 calls)

     Called by init_run:
     wfcinit      :      5.35s CPU      5.37s WALL (       1 calls)
     potinit      :      5.71s CPU      5.75s WALL (       1 calls)
     hinit0       :      0.05s CPU      0.06s WALL (       1 calls)

     Called by electrons:
     c_bands      :    350.36s CPU    351.78s WALL (      23 calls)
     sum_band     :     47.09s CPU     49.63s WALL (      23 calls)
     v_of_rho     :     14.40s CPU     15.23s WALL (      23 calls)
     newd         :      8.22s CPU     10.66s WALL (      23 calls)
     PAW_pot      :      1.42s CPU      1.45s WALL (      23 calls)
     mix_rho      :      5.60s CPU      5.62s WALL (      23 calls)
     vdW_kernel   :      5.26s CPU      5.27s WALL (       1 calls)

     Called by c_bands:
     init_us_2    :      3.41s CPU      3.41s WALL (    1410 calls)
     cegterg      :    343.81s CPU    345.18s WALL (     690 calls)

     Called by *egterg:
     cdiaghg      :     10.88s CPU     10.89s WALL (    2868 calls)
     h_psi        :    158.64s CPU    159.24s WALL (    2928 calls)
     s_psi        :     36.24s CPU     36.27s WALL (    2928 calls)
     g_psi        :      0.68s CPU      0.68s WALL (    2208 calls)

     Called by h_psi:
     h_psi:calbec :     44.75s CPU     44.93s WALL (    2928 calls)
     vloc_psi     :     66.35s CPU     66.74s WALL (    2928 calls)
                                        0.00s GPU  (    2928 calls)
     add_vuspsi   :     46.86s CPU     46.90s WALL (    2928 calls)

     General routines
     calbec       :     64.33s CPU     64.58s WALL (    3618 calls)
     fft          :      4.71s CPU      4.77s WALL (    1448 calls)
     ffts         :      1.95s CPU      1.95s WALL (    2629 calls)
     fftw         :     71.13s CPU     71.55s WALL (  206718 calls)
     interpolate  :      0.10s CPU      0.10s WALL (      23 calls)

     Parallel routines

     PWSCF        :   7m13.65s CPU   7m21.24s WALL


   This run was terminated on:  11: 6:55  20Jun2026            

=------------------------------------------------------------------------------=
   JOB DONE.
=------------------------------------------------------------------------------=
Note: The following floating-point exceptions are signalling: IEEE_UNDERFLOW_FLAG IEEE_DENORMAL
Note: The following floating-point exceptions are signalling: IEEE_UNDERFLOW_FLAG IEEE_DENORMAL
Note: The following floating-point exceptions are signalling: IEEE_UNDERFLOW_FLAG IEEE_DENORMAL
Note: The following floating-point exceptions are signalling: IEEE_UNDERFLOW_FLAG IEEE_DENORMAL
Note: The following floating-point exceptions are signalling: IEEE_UNDERFLOW_FLAG IEEE_DENORMAL
Note: The following floating-point exceptions are signalling: IEEE_UNDERFLOW_FLAG IEEE_DENORMAL
Note: The following floating-point exceptions are signalling: IEEE_UNDERFLOW_FLAG IEEE_DENORMAL
Note: The following floating-point exceptions are signalling: IEEE_UNDERFLOW_FLAG IEEE_DENORMAL
Note: The following floating-point exceptions are signalling: IEEE_UNDERFLOW_FLAG IEEE_DENORMAL
Note: The following floating-point exceptions are signalling: IEEE_UNDERFLOW_FLAG IEEE_DENORMAL
Note: The following floating-point exceptions are signalling: IEEE_UNDERFLOW_FLAG IEEE_DENORMAL
Note: The following floating-point exceptions are signalling: IEEE_UNDERFLOW_FLAG IEEE_DENORMAL
Note: The following floating-point exceptions are signalling: IEEE_UNDERFLOW_FLAG IEEE_DENORMAL
Note: The following floating-point exceptions are signalling: IEEE_UNDERFLOW_FLAG IEEE_DENORMAL
Note: The following floating-point exceptions are signalling: IEEE_UNDERFLOW_FLAG IEEE_DENORMAL
Note: The following floating-point exceptions are signalling: IEEE_UNDERFLOW_FLAG IEEE_DENORMAL
Note: The following floating-point exceptions are signalling: IEEE_UNDERFLOW_FLAG IEEE_DENORMAL
Note: The following floating-point exceptions are signalling: IEEE_UNDERFLOW_FLAG IEEE_DENORMAL
Note: The following floating-point exceptions are signalling: IEEE_UNDERFLOW_FLAG IEEE_DENORMAL
Note: The following floating-point exceptions are signalling: IEEE_UNDERFLOW_FLAG IEEE_DENORMAL
Note: The following floating-point exceptions are signalling: IEEE_UNDERFLOW_FLAG IEEE_DENORMAL
Note: The following floating-point exceptions are signalling: IEEE_UNDERFLOW_FLAG IEEE_DENORMAL
Note: The following floating-point exceptions are signalling: IEEE_UNDERFLOW_FLAG IEEE_DENORMAL
Note: The following floating-point exceptions are signalling: IEEE_UNDERFLOW_FLAG IEEE_DENORMAL
