
     Program PWSCF v.7.5 starts on 20Jun2026 at 13:52:10 

     This program is part of the open-source Quantum ESPRESSO suite
     for quantum simulation of materials; please cite
         "P. Giannozzi et al., J. Phys.:Condens. Matter 21 395502 (2009);
         "P. Giannozzi et al., J. Phys.:Condens. Matter 29 465901 (2017);
         "P. Giannozzi et al., J. Chem. Phys. 152 154105 (2020);
          URL http://www.quantum-espresso.org", 
     in publications or presentations arising from this work. More details at
     http://www.quantum-espresso.org/quote

     Parallel version (MPI), running on    24 processors

     MPI processes distributed on     1 nodes
     22698 MiB available memory on the printing compute node when the environment starts

     Waiting for input...
     Reading input from standard input

     Current dimensions of program PWSCF are:
     Max number of different atomic species (ntypx) = 10
     Max number of k-points (npk) =  40000
     Max angular momentum in pseudopotentials (lmaxx) =  4
     file Mo.pbe-spn-kjpaw_psl.1.0.0.UPF: wavefunction(s)  4S 4D renormalized
     file Se.pbe-dn-kjpaw_psl.1.0.0.UPF: wavefunction(s)  4S 4P 3D renormalized

     IMPORTANT: XC functional enforced from input :
     Exchange-correlation= VDW-DF2-B86R
                           (   1   4  26   0   2   0   0)
     Any further DFT definition will be discarded
     Please, verify this is what you really want


     R & G space division:  proc/nbgrp/npool/nimage =      24
     Subspace diagonalization in iterative solution of the eigenvalue problem:
     a serial algorithm will be used


     Parallelization info
     --------------------
     sticks:   dense  smooth     PW     G-vecs:    dense   smooth      PW
     Min          69      35     10                35537    12585    1924
     Max          70      36     11                35620    12648    1981
     Sum        1675     847    241               853823   302525   46513

     Using Slab Decomposition



     bravais-lattice index     =            4
     lattice parameter (alat)  =       6.1794  a.u.
     unit-cell volume          =    3124.5879 (a.u.)^3
     number of atoms/cell      =            6
     number of atomic types    =            2
     number of electrons       =        92.00
     number of Kohn-Sham states=           55
     kinetic-energy cutoff     =      80.0000  Ry
     charge density cutoff     =     640.0000  Ry
     scf convergence threshold =      1.0E-08
     mixing beta               =       0.3000
     number of iterations used =            8  local-TF  mixing
     Exchange-correlation= VDW-DF2-B86R
                           (   1   4  26   0   2   0   0)

     celldm(1)=   6.179404  celldm(2)=   0.000000  celldm(3)=  15.290520
     celldm(4)=   0.000000  celldm(5)=   0.000000  celldm(6)=   0.000000

     crystal axes: (cart. coord. in units of alat)
               a(1) = (   1.000000   0.000000   0.000000 )  
               a(2) = (  -0.500000   0.866025   0.000000 )  
               a(3) = (   0.000000   0.000000  15.290520 )  

     reciprocal axes: (cart. coord. in units 2 pi/alat)
               b(1) = (  1.000000  0.577350 -0.000000 )  
               b(2) = (  0.000000  1.154701  0.000000 )  
               b(3) = (  0.000000 -0.000000  0.065400 )  


     PseudoPot. # 1 for Mo read from file:
     ./pseudo/Mo.pbe-spn-kjpaw_psl.1.0.0.UPF
     MD5 check sum: 4396e0c640fcce5c25f020efccf1ab12
     Pseudo is Projector augmented-wave + core cor, Zval = 14.0
     Generated using &quot;atomic&quot; code by A. Dal Corso  v.6.3
     Shape of augmentation charge: PSQ
     Using radial grid of 1229 points,  6 beta functions with: 
                l(1) =   0
                l(2) =   0
                l(3) =   1
                l(4) =   1
                l(5) =   2
                l(6) =   2
     Q(r) pseudized with 0 coefficients 


     PseudoPot. # 2 for Se read from file:
     ./pseudo/Se.pbe-dn-kjpaw_psl.1.0.0.UPF
     MD5 check sum: ac240dd2bae32a30e0bf3a38df9c8785
     Pseudo is Projector augmented-wave + core cor, Zval = 16.0
     Generated using &quot;atomic&quot; code by A. Dal Corso  v.6.3
     Shape of augmentation charge: PSQ
     Using radial grid of 1211 points,  6 beta functions with: 
                l(1) =   0
                l(2) =   0
                l(3) =   1
                l(4) =   1
                l(5) =   2
                l(6) =   2
     Q(r) pseudized with 0 coefficients 


     atomic species   valence    mass     pseudopotential
     Mo               14.00    95.96000     Mo( 1.00)
     Se               16.00    78.96000     Se( 1.00)

      6 Sym. Ops. (no inversion) found



   Cartesian axes

     site n.     atom                  positions (alat units)
         1        Se     tau(   1) = (  -0.0000005   0.5773506   6.1238532  )
         2        Mo     tau(   2) = (   0.0000000   0.0000000   6.6502752  )
         3        Se     tau(   3) = (   0.5000005   0.2886748   7.1775994  )
         4        Se     tau(   4) = (  -0.0000005   0.5773506  10.4976606  )
         5        Mo     tau(   5) = (   0.5000005   0.2886748  11.0248471  )
         6        Se     tau(   6) = (   0.0000000   0.0000000  11.5519878  )

     number of k points=    30  Methfessel-Paxton smearing, width (Ry)=  0.0200
                       cart. coord. in units 2pi/alat
        k(    1) = (   0.0000000   0.0000000   0.0000000), wk =   0.0078125
        k(    2) = (   0.0000000   0.0721688   0.0000000), wk =   0.0468750
        k(    3) = (   0.0000000   0.1443376   0.0000000), wk =   0.0468750
        k(    4) = (   0.0000000   0.2165064   0.0000000), wk =   0.0468750
        k(    5) = (   0.0000000   0.2886751   0.0000000), wk =   0.0468750
        k(    6) = (   0.0000000   0.3608439   0.0000000), wk =   0.0468750
        k(    7) = (   0.0000000   0.4330127   0.0000000), wk =   0.0468750
        k(    8) = (   0.0000000   0.5051815   0.0000000), wk =   0.0468750
        k(    9) = (   0.0000000  -0.5773503   0.0000000), wk =   0.0234375
        k(   10) = (   0.0625000   0.1082532   0.0000000), wk =   0.0468750
        k(   11) = (   0.0625000   0.1804220   0.0000000), wk =   0.0937500
        k(   12) = (   0.0625000   0.2525907   0.0000000), wk =   0.0937500
        k(   13) = (   0.0625000   0.3247595   0.0000000), wk =   0.0937500
        k(   14) = (   0.0625000   0.3969283   0.0000000), wk =   0.0937500
        k(   15) = (   0.0625000   0.4690971   0.0000000), wk =   0.0937500
        k(   16) = (   0.0625000   0.5412659   0.0000000), wk =   0.0937500
        k(   17) = (   0.1250000   0.2165064   0.0000000), wk =   0.0468750
        k(   18) = (   0.1250000   0.2886751   0.0000000), wk =   0.0937500
        k(   19) = (   0.1250000   0.3608439   0.0000000), wk =   0.0937500
        k(   20) = (   0.1250000   0.4330127   0.0000000), wk =   0.0937500
        k(   21) = (   0.1250000   0.5051815   0.0000000), wk =   0.0937500
        k(   22) = (   0.1250000   0.5773503   0.0000000), wk =   0.0468750
        k(   23) = (   0.1875000   0.3247595   0.0000000), wk =   0.0468750
        k(   24) = (   0.1875000   0.3969283   0.0000000), wk =   0.0937500
        k(   25) = (   0.1875000   0.4690971   0.0000000), wk =   0.0937500
        k(   26) = (   0.1875000   0.5412659   0.0000000), wk =   0.0937500
        k(   27) = (   0.2500000   0.4330127   0.0000000), wk =   0.0468750
        k(   28) = (   0.2500000   0.5051815   0.0000000), wk =   0.0937500
        k(   29) = (   0.2500000   0.5773503   0.0000000), wk =   0.0468750
        k(   30) = (   0.3125000   0.5412659   0.0000000), wk =   0.0468750

     Dense  grid:   853823 G-vectors     FFT dimensions: (  50,  50, 768)

     Smooth grid:   302525 G-vectors     FFT dimensions: (  36,  36, 540)

     Estimated max dynamical RAM per process >     171.88 MB

     Estimated total dynamical RAM >       4.03 GB

     Initial potential from superposition of free atoms

     starting charge      91.9979, renormalised to      92.0000

     negative rho (up, down):  1.690E-04 0.000E+00


     %%%%%%%%%%%%%%%%%%%%%%%%%%%%%%%%%%%%%%%%%%%%%%%%%%%%%%%%%%%%%%%%%%%%%%%%
     %                                                                      %
     % You are using vdW-DF, which was implemented by the Thonhauser group. %
     % Please cite the following two papers that made this development      %
     % possible and the two reviews that describe the various versions:     %
     %                                                                      %
     %   T. Thonhauser et al., PRL 115, 136402 (2015).                      %
     %   T. Thonhauser et al., PRB 76, 125112 (2007).                       %
     %   K. Berland et al., Rep. Prog. Phys. 78, 066501 (2015).             %
     %   D.C. Langreth et al., J. Phys.: Condens. Matter 21, 084203 (2009). %
     %                                                                      %
     % If you are calculating stress with vdW-DF, please also cite:         %
     %                                                                      %
     %   R. Sabatini et al., J. Phys.: Condens. Matter 24, 424209 (2012).   %
     %                                                                      %
     %%%%%%%%%%%%%%%%%%%%%%%%%%%%%%%%%%%%%%%%%%%%%%%%%%%%%%%%%%%%%%%%%%%%%%%%

     %%%%%%%%%%%%%%%%%%%%%%%%%%%%%%%%%%%%%%%%%%%%%%%%%%%%%%%%%%%%%%%%%%%%%%%%
     %                                                                      %
     %  vdW-DF NEWS:                                                        %
     %                                                                      %
     %  * vdW-DF3 is now available. DOI: 10.1021/acs.jctc.0c00471           %
     %    use with input_dft = 'vdW-DF3-opt1' or 'vdW-DF3-opt2'             %
     %                                                                      %
     %  * Unscreened and range-separated hybrid vdW-DF-cx functionals       %
     %    DOI: 10.1063/1.4986522 and 10.1088/1361-648X/ac2ad2               %
     %    use with input_dft = 'vdW-DF-cx0'    and 'vdW-DF-ahcx'            %
     %  * Unscreened and range-separated hybrid vdW-DF2-b86r functionals    %
     %    DOI: 10.1063/1.4986522 and DOI: 10.1103/PhysRevX.12.041003        %
     %    use with input_dft = 'vdW-DF2-br0' and 'vdW-DF2-ahbr'             %
     %                                                                      %
     %%%%%%%%%%%%%%%%%%%%%%%%%%%%%%%%%%%%%%%%%%%%%%%%%%%%%%%%%%%%%%%%%%%%%%%%


     Starting wfcs are   56 randomized atomic wfcs
     Checking if some PAW data can be deallocated... 

     total cpu time spent up to now is       12.0 secs

     per-process dynamical memory:    79.7 Mb

     Self-consistent Calculation

     iteration #  1     ecut=    80.00 Ry     beta= 0.30
     Davidson diagonalization with overlap
     ethr =  1.00E-02,  avg # of iterations =  4.3

     Threshold (ethr) on eigenvalues was too large:
     Diagonalizing with lowered threshold

     Davidson diagonalization with overlap
     ethr =  4.49E-04,  avg # of iterations =  2.1

     negative rho (up, down):  2.281E-05 0.000E+00

     total cpu time spent up to now is       49.7 secs

     total energy              =   -2326.96215200 Ry
     estimated scf accuracy    <       0.46085391 Ry

     iteration #  2     ecut=    80.00 Ry     beta= 0.30
     Davidson diagonalization with overlap
     ethr =  5.01E-04,  avg # of iterations =  1.2

     negative rho (up, down):  7.341E-06 0.000E+00

     total cpu time spent up to now is       65.6 secs

     total energy              =   -2326.91618715 Ry
     estimated scf accuracy    <       0.24192709 Ry

     iteration #  3     ecut=    80.00 Ry     beta= 0.30
     Davidson diagonalization with overlap
     ethr =  2.63E-04,  avg # of iterations =  3.8

     negative rho (up, down):  1.772E-06 0.000E+00

     total cpu time spent up to now is       84.2 secs

     total energy              =   -2326.92269111 Ry
     estimated scf accuracy    <       0.03237434 Ry

     iteration #  4     ecut=    80.00 Ry     beta= 0.30
     Davidson diagonalization with overlap
     c_bands:  1 eigenvalues not converged
     ethr =  3.52E-05,  avg # of iterations =  9.3

     negative rho (up, down):  8.662E-07 0.000E+00

     total cpu time spent up to now is      105.5 secs

     total energy              =   -2326.92291599 Ry
     estimated scf accuracy    <       0.01044659 Ry

     iteration #  5     ecut=    80.00 Ry     beta= 0.30
     Davidson diagonalization with overlap
     ethr =  1.14E-05,  avg # of iterations =  4.2

     negative rho (up, down):  6.565E-07 0.000E+00

     total cpu time spent up to now is      125.5 secs

     total energy              =   -2326.92185310 Ry
     estimated scf accuracy    <       0.00462144 Ry

     iteration #  6     ecut=    80.00 Ry     beta= 0.30
     Davidson diagonalization with overlap
     ethr =  5.02E-06,  avg # of iterations =  5.6

     negative rho (up, down):  2.311E-07 0.000E+00

     total cpu time spent up to now is      147.3 secs

     total energy              =   -2326.92183629 Ry
     estimated scf accuracy    <       0.00169803 Ry

     iteration #  7     ecut=    80.00 Ry     beta= 0.30
     Davidson diagonalization with overlap
     c_bands:  1 eigenvalues not converged
     c_bands:  1 eigenvalues not converged
     c_bands:  1 eigenvalues not converged
     ethr =  1.85E-06,  avg # of iterations =  5.4

     negative rho (up, down):  2.519E-05 0.000E+00

     total cpu time spent up to now is      167.5 secs

     total energy              =   -2326.92158928 Ry
     estimated scf accuracy    <       0.00150562 Ry

     iteration #  8     ecut=    80.00 Ry     beta= 0.30
     Davidson diagonalization with overlap
     c_bands:  1 eigenvalues not converged
     c_bands:  1 eigenvalues not converged
     ethr =  1.64E-06,  avg # of iterations =  7.9

     negative rho (up, down):  8.115E-05 0.000E+00

     total cpu time spent up to now is      187.5 secs

     total energy              =   -2326.92156250 Ry
     estimated scf accuracy    <       0.00075938 Ry

     iteration #  9     ecut=    80.00 Ry     beta= 0.30
     Davidson diagonalization with overlap
     ethr =  8.25E-07,  avg # of iterations =  1.9

     negative rho (up, down):  2.538E-03 0.000E+00

     total cpu time spent up to now is      205.5 secs

     total energy              =   -2326.92169215 Ry
     estimated scf accuracy    <       0.00051384 Ry

     iteration # 10     ecut=    80.00 Ry     beta= 0.30
     Davidson diagonalization with overlap
     ethr =  5.59E-07,  avg # of iterations =  7.4

     negative rho (up, down):  3.319E-03 0.000E+00

     total cpu time spent up to now is      225.1 secs

     total energy              =   -2326.92167337 Ry
     estimated scf accuracy    <       0.00040902 Ry

     iteration # 11     ecut=    80.00 Ry     beta= 0.30
     Davidson diagonalization with overlap
     ethr =  4.45E-07,  avg # of iterations =  3.7

     negative rho (up, down):  3.534E-03 0.000E+00

     total cpu time spent up to now is      242.9 secs

     total energy              =   -2326.92166190 Ry
     estimated scf accuracy    <       0.00034733 Ry

     iteration # 12     ecut=    80.00 Ry     beta= 0.30
     Davidson diagonalization with overlap
     ethr =  3.78E-07,  avg # of iterations =  1.0

     negative rho (up, down):  3.213E-03 0.000E+00

     total cpu time spent up to now is      258.4 secs

     total energy              =   -2326.92159180 Ry
     estimated scf accuracy    <       0.00031734 Ry

     iteration # 13     ecut=    80.00 Ry     beta= 0.30
     Davidson diagonalization with overlap
     ethr =  3.45E-07,  avg # of iterations =  5.9

     negative rho (up, down):  3.471E-03 0.000E+00

     total cpu time spent up to now is      277.0 secs

     total energy              =   -2326.92146916 Ry
     estimated scf accuracy    <       0.00024666 Ry

     iteration # 14     ecut=    80.00 Ry     beta= 0.30
     Davidson diagonalization with overlap
     ethr =  2.68E-07,  avg # of iterations =  5.1

     negative rho (up, down):  2.797E-03 0.000E+00

     total cpu time spent up to now is      297.0 secs

     total energy              =   -2326.92153224 Ry
     estimated scf accuracy    <       0.00006543 Ry

     iteration # 15     ecut=    80.00 Ry     beta= 0.30
     Davidson diagonalization with overlap
     ethr =  7.11E-08,  avg # of iterations =  2.1

     negative rho (up, down):  1.251E-03 0.000E+00

     total cpu time spent up to now is      314.8 secs

     total energy              =   -2326.92158790 Ry
     estimated scf accuracy    <       0.00003138 Ry

     iteration # 16     ecut=    80.00 Ry     beta= 0.30
     Davidson diagonalization with overlap
     ethr =  3.41E-08,  avg # of iterations =  5.4

     negative rho (up, down):  8.721E-04 0.000E+00

     total cpu time spent up to now is      336.0 secs

     total energy              =   -2326.92159676 Ry
     estimated scf accuracy    <       0.00000746 Ry

     iteration # 17     ecut=    80.00 Ry     beta= 0.30
     Davidson diagonalization with overlap
     ethr =  8.11E-09,  avg # of iterations =  7.5

     negative rho (up, down):  2.817E-04 0.000E+00

     total cpu time spent up to now is      357.2 secs

     total energy              =   -2326.92161156 Ry
     estimated scf accuracy    <       0.00000349 Ry

     iteration # 18     ecut=    80.00 Ry     beta= 0.30
     Davidson diagonalization with overlap
     ethr =  3.80E-09,  avg # of iterations =  3.9

     negative rho (up, down):  2.764E-04 0.000E+00

     total cpu time spent up to now is      379.1 secs

     total energy              =   -2326.92161053 Ry
     estimated scf accuracy    <       0.00000111 Ry

     iteration # 19     ecut=    80.00 Ry     beta= 0.30
     Davidson diagonalization with overlap
     ethr =  1.20E-09,  avg # of iterations =  2.0

     negative rho (up, down):  2.611E-04 0.000E+00

     total cpu time spent up to now is      399.4 secs

     total energy              =   -2326.92161109 Ry
     estimated scf accuracy    <       0.00000012 Ry

     iteration # 20     ecut=    80.00 Ry     beta= 0.30
     Davidson diagonalization with overlap
     ethr =  1.27E-10,  avg # of iterations =  1.8

     negative rho (up, down):  2.133E-04 0.000E+00

     total cpu time spent up to now is      416.8 secs

     total energy              =   -2326.92161223 Ry
     estimated scf accuracy    <       0.00000006 Ry

     iteration # 21     ecut=    80.00 Ry     beta= 0.30
     Davidson diagonalization with overlap
     ethr =  6.77E-11,  avg # of iterations =  2.4

     negative rho (up, down):  2.078E-04 0.000E+00

     total cpu time spent up to now is      437.2 secs

     total energy              =   -2326.92161216 Ry
     estimated scf accuracy    <       0.00000001 Ry

     iteration # 22     ecut=    80.00 Ry     beta= 0.30
     Davidson diagonalization with overlap
     ethr =  1.15E-11,  avg # of iterations =  2.1

     negative rho (up, down):  1.965E-04 0.000E+00

     total cpu time spent up to now is      456.3 secs

     End of self-consistent calculation

          k = 0.0000 0.0000 0.0000 ( 37787 PWs)   bands (ev):

   -61.8952 -61.8943 -48.2901 -48.2901 -48.2897 -48.2897 -48.2885 -48.2885
   -48.2883 -48.2883 -48.2445 -48.2445 -48.2442 -48.2442 -48.2429 -48.2429
   -48.2428 -48.2428 -48.2259 -48.2254 -48.2243 -48.2241 -36.0137 -36.0126
   -35.8983 -35.8983 -35.8970 -35.8970 -15.2933 -15.2898 -14.4751 -14.4736
    -6.4364  -6.4333  -3.3598  -3.3598  -3.3537  -3.3537  -3.3352  -3.3352
    -1.5891  -1.5879  -1.0635  -1.0634  -1.0606  -1.0605   0.2298   0.2298
     0.2326   0.2326   2.9483   2.9483   2.9504   2.9504   3.2525

          k = 0.0000 0.0722 0.0000 ( 37755 PWs)   bands (ev):

   -61.8943 -61.8933 -48.2901 -48.2899 -48.2897 -48.2895 -48.2884 -48.2883
   -48.2882 -48.2881 -48.2446 -48.2446 -48.2442 -48.2442 -48.2430 -48.2430
   -48.2428 -48.2428 -48.2258 -48.2253 -48.2242 -48.2240 -36.0115 -36.0104
   -35.9090 -35.9076 -35.9008 -35.8994 -15.2365 -15.2330 -14.4457 -14.4441
    -6.3587  -6.3556  -3.8323  -3.8284  -3.3278  -3.3217  -2.9322  -2.9301
    -1.6271  -1.6265  -1.2531  -1.2503  -1.2105  -1.2073   0.1222   0.1244
     0.3428   0.3453   2.6272   2.6302   2.8997   2.9017   3.3593

          k = 0.0000 0.1443 0.0000 ( 37697 PWs)   bands (ev):

   -61.8915 -61.8906 -48.2900 -48.2897 -48.2894 -48.2890 -48.2884 -48.2883
   -48.2877 -48.2875 -48.2448 -48.2447 -48.2444 -48.2442 -48.2433 -48.2431
   -48.2429 -48.2428 -48.2255 -48.2251 -48.2240 -48.2237 -36.0051 -36.0040
   -35.9391 -35.9377 -35.9077 -35.9064 -15.0702 -15.0667 -14.3595 -14.3577
    -6.1334  -6.1303  -4.3181  -4.3137  -3.2525  -3.2464  -2.7128  -2.7113
    -2.0765  -2.0742  -1.4980  -1.4945  -1.4547  -1.4542   0.0040   0.0050
     0.5334   0.5353   2.0334   2.0359   2.8000   2.8018   3.6193

          k = 0.0000 0.2165 0.0000 ( 37653 PWs)   bands (ev):

   -61.8874 -61.8865 -48.2900 -48.2897 -48.2886 -48.2883 -48.2883 -48.2882
   -48.2869 -48.2867 -48.2452 -48.2448 -48.2445 -48.2443 -48.2436 -48.2432
   -48.2431 -48.2428 -48.2251 -48.2247 -48.2236 -48.2233 -35.9959 -35.9948
   -35.9835 -35.9822 -35.9181 -35.9167 -14.8072 -14.8039 -14.2231 -14.2211
    -5.7927  -5.7897  -4.7475  -4.7429  -3.2569  -3.2538  -3.2009  -3.1949
    -2.4339  -2.4331  -1.7217  -1.7179  -1.5557  -1.5553  -0.0269  -0.0267
     0.6398   0.6411   1.6719   1.6740   2.7345   2.7362   3.9874

          k = 0.0000 0.2887 0.0000 ( 37721 PWs)   bands (ev):

   -61.8825 -61.8816 -48.2900 -48.2896 -48.2884 -48.2882 -48.2877 -48.2873
   -48.2860 -48.2858 -48.2456 -48.2450 -48.2447 -48.2443 -48.2440 -48.2434
   -48.2432 -48.2429 -48.2247 -48.2242 -48.2231 -48.2229 -36.0366 -36.0352
   -35.9839 -35.9829 -35.9303 -35.9289 -14.4740 -14.4707 -14.0453 -14.0430
    -5.4813  -5.4777  -4.9874  -4.9834  -4.2789  -4.2755  -3.2553  -3.2496
    -2.6193  -2.6192  -1.8088  -1.8081  -1.7653  -1.7613   0.0543   0.0548
     0.6449   0.6460   1.7787   1.7807   2.7357   2.7375   4.4566

          k = 0.0000 0.3608 0.0000 ( 37749 PWs)   bands (ev):

   -61.8777 -61.8768 -48.2901 -48.2896 -48.2885 -48.2881 -48.2868 -48.2864
   -48.2851 -48.2850 -48.2460 -48.2451 -48.2449 -48.2444 -48.2444 -48.2435
   -48.2434 -48.2430 -48.2243 -48.2238 -48.2227 -48.2224 -36.0886 -36.0871
   -35.9726 -35.9716 -35.9424 -35.9411 -14.1257 -14.1225 -13.8258 -13.8233
    -5.5981  -5.5938  -5.2363  -5.2331  -4.7233  -4.7201  -3.4039  -3.3984
    -2.9795  -2.9794  -2.0741  -2.0734  -1.6600  -1.6561   0.3138   0.3142
     0.6218   0.6231   2.1974   2.1997   2.7723   2.7743   4.9978

          k = 0.0000 0.4330 0.0000 ( 37785 PWs)   bands (ev):

   -61.8736 -61.8727 -48.2901 -48.2895 -48.2885 -48.2880 -48.2860 -48.2857
   -48.2843 -48.2842 -48.2463 -48.2452 -48.2450 -48.2448 -48.2445 -48.2437
   -48.2435 -48.2430 -48.2239 -48.2234 -48.2223 -48.2220 -36.1323 -36.1308
   -35.9630 -35.9620 -35.9527 -35.9514 -13.8618 -13.8585 -13.5469 -13.5443
    -6.1986  -6.1947  -5.5761  -5.5729  -4.5336  -4.5310  -3.5631  -3.5577
    -3.2339  -3.2331  -2.2476  -2.2469  -1.5264  -1.5227   0.6364   0.6381
     0.6788   0.6789   2.7128   2.7153   2.8087   2.8110   5.1678

          k = 0.0000 0.5052 0.0000 ( 37822 PWs)   bands (ev):

   -61.8708 -61.8699 -48.2902 -48.2894 -48.2886 -48.2879 -48.2855 -48.2851
   -48.2838 -48.2837 -48.2466 -48.2453 -48.2451 -48.2451 -48.2445 -48.2438
   -48.2436 -48.2431 -48.2236 -48.2231 -48.2220 -48.2218 -36.1614 -36.1599
   -35.9596 -35.9582 -35.9565 -35.9555 -13.7167 -13.7131 -13.2851 -13.2825
    -6.7561  -6.7523  -5.5974  -5.5949  -4.7007  -4.6983  -3.6751  -3.6698
    -3.1139  -3.1124  -2.3757  -2.3751  -1.4392  -1.4359   0.6855   0.6878
     1.0200   1.0201   2.8313   2.8338   3.1597   3.1623   4.6775

          k = 0.0000-0.5774 0.0000 ( 37832 PWs)   bands (ev):

   -61.8698 -61.8689 -48.2902 -48.2894 -48.2886 -48.2879 -48.2853 -48.2850
   -48.2836 -48.2835 -48.2467 -48.2453 -48.2451 -48.2451 -48.2445 -48.2438
   -48.2436 -48.2431 -48.2235 -48.2230 -48.2219 -48.2217 -36.1715 -36.1700
   -35.9620 -35.9606 -35.9543 -35.9533 -13.6692 -13.6655 -13.1785 -13.1759
    -6.9613  -6.9575  -5.5678  -5.5658  -4.8435  -4.8408  -3.7148  -3.7095
    -2.9853  -2.9836  -2.4442  -2.4436  -1.4114  -1.4083   0.7131   0.7155
     1.1668   1.1669   2.8386   2.8411   3.3799   3.3820   4.3512

          k = 0.0625 0.1083 0.0000 ( 37709 PWs)   bands (ev):

   -61.8924 -61.8915 -48.2900 -48.2897 -48.2896 -48.2892 -48.2884 -48.2882
   -48.2879 -48.2877 -48.2448 -48.2446 -48.2443 -48.2442 -48.2432 -48.2430
   -48.2429 -48.2428 -48.2256 -48.2251 -48.2241 -48.2238 -36.0072 -36.0061
   -35.9290 -35.9277 -35.9058 -35.9044 -15.1249 -15.1214 -14.3879 -14.3862
    -6.2067  -6.2036  -4.1891  -4.1849  -3.2813  -3.2752  -2.7332  -2.7316
    -1.8756  -1.8740  -1.4981  -1.4948  -1.3795  -1.3784   0.0643   0.0657
     0.4331   0.4350   2.2611   2.2639   2.7560   2.7578   3.5404

          k = 0.0625 0.1804 0.0000 ( 37703 PWs)   bands (ev):

   -61.8890 -61.8881 -48.2900 -48.2897 -48.2889 -48.2885 -48.2883 -48.2882
   -48.2873 -48.2871 -48.2450 -48.2447 -48.2444 -48.2443 -48.2435 -48.2432
   -48.2430 -48.2429 -48.2253 -48.2248 -48.2237 -48.2235 -35.9992 -35.9981
   -35.9656 -35.9643 -35.9152 -35.9139 -14.9098 -14.9064 -14.2767 -14.2749
    -5.9187  -5.9157  -4.6029  -4.5983  -3.2757  -3.2699  -2.8100  -2.8078
    -2.4527  -2.4505  -1.7528  -1.7498  -1.4113  -1.4108   0.0640   0.0646
     0.4338   0.4350   1.9413   1.9435   2.5821   2.5837   3.8487

          k = 0.0625 0.2526 0.0000 ( 37702 PWs)   bands (ev):

   -61.8845 -61.8836 -48.2900 -48.2896 -48.2883 -48.2881 -48.2881 -48.2877
   -48.2864 -48.2863 -48.2454 -48.2449 -48.2446 -48.2444 -48.2439 -48.2433
   -48.2431 -48.2429 -48.2249 -48.2244 -48.2233 -48.2230 -36.0134 -36.0120
   -35.9886 -35.9875 -35.9276 -35.9263 -14.6097 -14.6064 -14.1207 -14.1185
    -5.5512  -5.5481  -4.9471  -4.9426  -3.8347  -3.8310  -3.2215  -3.2167
    -2.5985  -2.5969  -1.9628  -1.9604  -1.4429  -1.4417   0.0001   0.0003
     0.5139   0.5147   1.8336   1.8353   2.5535   2.5551   4.2656

          k = 0.0625 0.3248 0.0000 ( 37734 PWs)   bands (ev):

   -61.8796 -61.8787 -48.2900 -48.2895 -48.2883 -48.2880 -48.2872 -48.2868
   -48.2856 -48.2854 -48.2458 -48.2450 -48.2448 -48.2444 -48.2443 -48.2435
   -48.2433 -48.2430 -48.2244 -48.2239 -48.2229 -48.2226 -36.0643 -36.0629
   -35.9773 -35.9763 -35.9410 -35.9397 -14.2613 -14.2581 -13.9271 -13.9247
    -5.4442  -5.4400  -4.9233  -4.9202  -4.7790  -4.7753  -3.4610  -3.4565
    -2.7241  -2.7229  -2.2779  -2.2756  -1.4328  -1.4307   0.0507   0.0508
     0.6625   0.6633   1.9698   1.9714   2.6465   2.6485   4.7801

          k = 0.0625 0.3969 0.0000 ( 37770 PWs)   bands (ev):

   -61.8751 -61.8742 -48.2900 -48.2894 -48.2884 -48.2879 -48.2864 -48.2860
   -48.2847 -48.2846 -48.2462 -48.2452 -48.2449 -48.2446 -48.2445 -48.2437
   -48.2434 -48.2430 -48.2240 -48.2235 -48.2224 -48.2222 -36.1110 -36.1096
   -35.9669 -35.9658 -35.9533 -35.9520 -13.9452 -13.9419 -13.6829 -13.6803
    -5.8143  -5.8103  -5.4800  -5.4767  -4.5577  -4.5549  -3.7060  -3.7019
    -2.9882  -2.9868  -2.4959  -2.4939  -1.3649  -1.3625   0.2474   0.2477
     0.8194   0.8204   2.2560   2.2577   2.8191   2.8216   5.3078

          k = 0.0625 0.4691 0.0000 ( 37798 PWs)   bands (ev):

   -61.8717 -61.8708 -48.2900 -48.2893 -48.2884 -48.2878 -48.2858 -48.2854
   -48.2841 -48.2840 -48.2465 -48.2454 -48.2450 -48.2449 -48.2445 -48.2438
   -48.2435 -48.2431 -48.2237 -48.2232 -48.2221 -48.2219 -36.1465 -36.1451
   -35.9631 -35.9618 -35.9584 -35.9574 -13.7477 -13.7442 -13.3973 -13.3947
    -6.4693  -6.4655  -5.5864  -5.5835  -4.5522  -4.5498  -3.7999  -3.7954
    -3.1032  -3.1014  -2.6013  -2.5996  -1.3249  -1.3226   0.4889   0.4901
     1.0017   1.0025   2.4801   2.4820   3.0763   3.0790   5.1484

          k = 0.0625 0.5413 0.0000 ( 37791 PWs)   bands (ev):

   -61.8698 -61.8689 -48.2900 -48.2893 -48.2885 -48.2877 -48.2854 -48.2851
   -48.2837 -48.2837 -48.2466 -48.2454 -48.2451 -48.2450 -48.2446 -48.2439
   -48.2435 -48.2431 -48.2235 -48.2230 -48.2219 -48.2217 -36.1657 -36.1642
   -35.9680 -35.9667 -35.9543 -35.9533 -13.6545 -13.6509 -13.2022 -13.1996
    -6.8562  -6.8523  -5.5689  -5.5666  -4.7621  -4.7595  -3.8174  -3.8126
    -2.9901  -2.9882  -2.6736  -2.6722  -1.3260  -1.3238   0.6688   0.6709
     1.1315   1.1319   2.5773   2.5794   3.3195   3.3218   4.6476

          k = 0.1250 0.2165 0.0000 ( 37731 PWs)   bands (ev):

   -61.8852 -61.8843 -48.2899 -48.2896 -48.2883 -48.2883 -48.2881 -48.2879
   -48.2866 -48.2865 -48.2454 -48.2448 -48.2445 -48.2444 -48.2438 -48.2432
   -48.2431 -48.2430 -48.2250 -48.2245 -48.2234 -48.2231 -36.0035 -36.0021
   -35.9904 -35.9893 -35.9282 -35.9268 -14.6562 -14.6529 -14.1465 -14.1444
    -5.5819  -5.5789  -4.9147  -4.9100  -3.6931  -3.6886  -3.0084  -3.0063
    -2.8630  -2.8587  -1.9306  -1.9285  -1.3213  -1.3207   0.0542   0.0547
     0.3154   0.3159   2.1669   2.1692   2.1861   2.1875   4.2035

          k = 0.1250 0.2887 0.0000 ( 37723 PWs)   bands (ev):

   -61.8807 -61.8798 -48.2898 -48.2894 -48.2882 -48.2879 -48.2875 -48.2872
   -48.2859 -48.2857 -48.2457 -48.2449 -48.2447 -48.2445 -48.2442 -48.2433
   -48.2432 -48.2431 -48.2245 -48.2240 -48.2230 -48.2227 -36.0471 -36.0456
   -35.9801 -35.9790 -35.9442 -35.9428 -14.3338 -14.3306 -13.9793 -13.9769
    -5.2681  -5.2642  -5.0791  -5.0754  -4.4609  -4.4571  -3.4608  -3.4577
    -2.9526  -2.9489  -2.1984  -2.1970  -1.1949  -1.1937  -0.1583  -0.1581
     0.6080   0.6085   1.8749   1.8759   2.4775   2.4801   4.6695

          k = 0.1250 0.3608 0.0000 ( 37761 PWs)   bands (ev):

   -61.8762 -61.8753 -48.2897 -48.2892 -48.2881 -48.2877 -48.2868 -48.2864
   -48.2852 -48.2850 -48.2461 -48.2451 -48.2448 -48.2446 -48.2445 -48.2436
   -48.2433 -48.2432 -48.2241 -48.2236 -48.2225 -48.2223 -36.0900 -36.0885
   -35.9702 -35.9692 -35.9599 -35.9586 -13.9937 -13.9905 -13.7784 -13.7757
    -5.4711  -5.4667  -5.2608  -5.2573  -4.6649  -4.6618  -3.8489  -3.8455
    -3.0519  -3.0489  -2.6287  -2.6272  -1.0641  -1.0626  -0.1231  -0.1230
     0.8904   0.8911   1.7930   1.7940   2.7867   2.7894   5.2225

          k = 0.1250 0.4330 0.0000 ( 37768 PWs)   bands (ev):

   -61.8724 -61.8715 -48.2897 -48.2890 -48.2881 -48.2875 -48.2862 -48.2858
   -48.2845 -48.2844 -48.2463 -48.2454 -48.2449 -48.2448 -48.2447 -48.2439
   -48.2433 -48.2432 -48.2238 -48.2233 -48.2222 -48.2219 -36.1260 -36.1245
   -35.9752 -35.9739 -35.9600 -35.9589 -13.7437 -13.7404 -13.5152 -13.5125
    -6.0607  -6.0569  -5.5199  -5.5164  -4.3942  -4.3916  -4.0761  -4.0725
    -3.1635  -3.1609  -2.9773  -2.9755  -1.0320  -1.0308   0.1202   0.1208
     1.0805   1.0817   1.9027   1.9039   3.0661   3.0688   5.6121

          k = 0.1250 0.5052 0.0000 ( 37794 PWs)   bands (ev):

   -61.8698 -61.8689 -48.2896 -48.2889 -48.2881 -48.2874 -48.2858 -48.2854
   -48.2841 -48.2840 -48.2465 -48.2456 -48.2450 -48.2449 -48.2447 -48.2440
   -48.2434 -48.2433 -48.2235 -48.2231 -48.2219 -48.2217 -36.1499 -36.1484
   -35.9843 -35.9829 -35.9543 -35.9533 -13.6118 -13.6083 -13.2663 -13.2636
    -6.5640  -6.5602  -5.5531  -5.5502  -4.5669  -4.5642  -4.0278  -4.0240
    -3.2449  -3.2425  -3.0413  -3.0393  -1.0892  -1.0882   0.4580   0.4592
     1.1299   1.1310   2.0693   2.0708   3.2532   3.2557   5.2851

          k = 0.1250 0.5774 0.0000 ( 37780 PWs)   bands (ev):

   -61.8689 -61.8680 -48.2896 -48.2889 -48.2881 -48.2873 -48.2856 -48.2853
   -48.2839 -48.2839 -48.2465 -48.2456 -48.2450 -48.2449 -48.2447 -48.2441
   -48.2434 -48.2433 -48.2234 -48.2230 -48.2219 -48.2216 -36.1582 -36.1568
   -35.9876 -35.9862 -35.9523 -35.9513 -13.5682 -13.5646 -13.1670 -13.1643
    -6.7475  -6.7438  -5.5451  -5.5425  -4.6815  -4.6787  -4.0242  -4.0202
    -3.2741  -3.2719  -2.9959  -2.9939  -1.1283  -1.1273   0.6595   0.6612
     1.0815   1.0822   2.1523   2.1540   3.3180   3.3201   5.0251

          k = 0.1875 0.3248 0.0000 ( 37725 PWs)   bands (ev):

   -61.8766 -61.8757 -48.2896 -48.2890 -48.2880 -48.2875 -48.2870 -48.2866
   -48.2854 -48.2852 -48.2460 -48.2450 -48.2448 -48.2447 -48.2445 -48.2434
   -48.2433 -48.2433 -48.2242 -48.2237 -48.2226 -48.2223 -36.0804 -36.0790
   -35.9723 -35.9712 -35.9635 -35.9622 -14.0090 -14.0059 -13.8131 -13.8104
    -5.3388  -5.3343  -5.0922  -5.0884  -4.7539  -4.7510  -3.8519  -3.8493
    -3.3328  -3.3288  -2.5093  -2.5082  -0.8956  -0.8943  -0.3029  -0.3028
     0.8888   0.8894   1.6060   1.6066   2.7760   2.7788   5.1817

          k = 0.1875 0.3969 0.0000 ( 37753 PWs)   bands (ev):

   -61.8728 -61.8719 -48.2893 -48.2887 -48.2877 -48.2872 -48.2865 -48.2862
   -48.2849 -48.2847 -48.2462 -48.2453 -48.2450 -48.2447 -48.2447 -48.2437
   -48.2435 -48.2433 -48.2238 -48.2233 -48.2222 -48.2220 -36.1092 -36.1077
   -35.9875 -35.9861 -35.9608 -35.9598 -13.7061 -13.7029 -13.6156 -13.6128
    -5.6919  -5.6881  -5.4425  -5.4385  -4.3533  -4.3505  -4.2039  -4.2011
    -3.6584  -3.6550  -2.9081  -2.9069  -0.6893  -0.6883  -0.2350  -0.2349
     1.1100   1.1109   1.5254   1.5259   3.0684   3.0711   5.7390

          k = 0.1875 0.4691 0.0000 ( 37759 PWs)   bands (ev):

   -61.8698 -61.8689 -48.2892 -48.2884 -48.2876 -48.2869 -48.2862 -48.2859
   -48.2846 -48.2844 -48.2464 -48.2455 -48.2450 -48.2448 -48.2447 -48.2440
   -48.2435 -48.2432 -48.2235 -48.2231 -48.2219 -48.2217 -36.1301 -36.1286
   -36.0046 -36.0032 -35.9543 -35.9533 -13.5457 -13.5423 -13.3533 -13.3505
    -6.1761  -6.1724  -5.5098  -5.5062  -4.4258  -4.4229  -4.1172  -4.1143
    -3.8840  -3.8812  -3.1781  -3.1765  -0.7407  -0.7403   0.1067   0.1073
     1.1500   1.1512   1.6763   1.6770   3.2323   3.2349   5.8000

          k = 0.1875 0.5413 0.0000 ( 37793 PWs)   bands (ev):

   -61.8683 -61.8674 -48.2890 -48.2883 -48.2875 -48.2868 -48.2860 -48.2857
   -48.2844 -48.2842 -48.2464 -48.2457 -48.2451 -48.2449 -48.2447 -48.2442
   -48.2436 -48.2432 -48.2234 -48.2229 -48.2218 -48.2216 -36.1410 -36.1395
   -36.0142 -36.0128 -35.9507 -35.9497 -13.4681 -13.4646 -13.1838 -13.1810
    -6.4534  -6.4497  -5.5383  -5.5351  -4.5194  -4.5163  -4.1599  -4.1568
    -3.9588  -3.9565  -3.1993  -3.1975  -0.8287  -0.8283   0.4734   0.4742
     1.0025   1.0038   1.8870   1.8880   3.2283   3.2304   5.6597

          k = 0.2500 0.4330 0.0000 ( 37711 PWs)   bands (ev):

   -61.8698 -61.8689 -48.2889 -48.2882 -48.2873 -48.2867 -48.2864 -48.2861
   -48.2848 -48.2846 -48.2463 -48.2455 -48.2452 -48.2448 -48.2447 -48.2439
   -48.2437 -48.2432 -48.2235 -48.2231 -48.2219 -48.2217 -36.1196 -36.1182
   -36.0152 -36.0138 -35.9543 -35.9533 -13.4838 -13.4806 -13.4237 -13.4207
    -5.9556  -5.9519  -5.4783  -5.4743  -4.4074  -4.4049  -4.2473  -4.2440
    -4.0428  -4.0400  -3.2739  -3.2726  -0.3299  -0.3294  -0.3092  -0.3081
     1.1455   1.1464   1.5517   1.5518   3.2307   3.2334   6.0113

          k = 0.2500 0.5052 0.0000 ( 37776 PWs)   bands (ev):

   -61.8679 -61.8670 -48.2885 -48.2878 -48.2869 -48.2865 -48.2863 -48.2861
   -48.2848 -48.2846 -48.2463 -48.2457 -48.2453 -48.2448 -48.2446 -48.2442
   -48.2439 -48.2432 -48.2233 -48.2229 -48.2217 -48.2216 -36.1222 -36.1207
   -36.0383 -36.0369 -35.9499 -35.9489 -13.3741 -13.3708 -13.2367 -13.2337
    -6.1033  -6.0997  -5.5300  -5.5262  -4.6667  -4.6632  -4.3846  -4.3824
    -3.9690  -3.9667  -3.5117  -3.5101  -0.4322  -0.4322   0.0635   0.0640
     0.9657   0.9670   1.8431   1.8435   3.1583   3.1605   5.7885

          k = 0.2500 0.5774 0.0000 ( 37791 PWs)   bands (ev):

   -61.8672 -61.8663 -48.2884 -48.2876 -48.2868 -48.2865 -48.2861 -48.2861
   -48.2849 -48.2847 -48.2462 -48.2458 -48.2454 -48.2447 -48.2446 -48.2443
   -48.2439 -48.2431 -48.2233 -48.2229 -48.2217 -48.2215 -36.1216 -36.1202
   -36.0478 -36.0464 -35.9483 -35.9473 -13.3355 -13.3321 -13.1668 -13.1638
    -6.1463  -6.1426  -5.5602  -5.5565  -4.8197  -4.8161  -4.2049  -4.2027
    -4.1853  -4.1833  -3.5126  -3.5107  -0.4831  -0.4831   0.3221   0.3222
     0.7584   0.7604   2.0619   2.0626   3.0213   3.0230   5.6872

          k = 0.3125 0.5413 0.0000 ( 37789 PWs)   bands (ev):

   -61.8668 -61.8659 -48.2879 -48.2872 -48.2868 -48.2865 -48.2863 -48.2857
   -48.2852 -48.2850 -48.2461 -48.2459 -48.2456 -48.2446 -48.2446 -48.2443
   -48.2442 -48.2431 -48.2232 -48.2228 -48.2216 -48.2215 -36.1041 -36.1027
   -36.0703 -36.0689 -35.9475 -35.9465 -13.2561 -13.2527 -13.1942 -13.1911
    -5.8420  -5.8385  -5.5699  -5.5659  -5.2593  -5.2558  -4.2179  -4.2160
    -3.8798  -3.8779  -3.8773  -3.8764  -0.1457  -0.1452   0.0317   0.0318
     0.6588   0.6610   2.2698   2.2706   2.8341   2.8356   5.6191

     the Fermi energy is    -0.2947 ev

!    total energy              =   -2326.92161243 Ry
     total all-electron energy =    -35628.669441 Ry
     estimated scf accuracy    <          3.5E-09 Ry
     smearing contrib. (-TS)   =       0.00090301 Ry
     internal energy E=F+TS    =   -2326.92251544 Ry

     The total energy is F=E-TS. E is the sum of the following terms:
     one-electron contribution =  -15703.60377356 Ry
     hartree contribution      =    7840.03413543 Ry
     xc contribution           =    -152.42411967 Ry
     ewald contribution        =    6699.58572880 Ry
     one-center paw contrib.   =   -1010.51448645 Ry

     convergence has been achieved in  22 iterations

     Writing all to output data dir ./tmp/cleave_039/mose2_cleave_039.save/ :
     XML data file, charge density, pseudopotentials, collected wavefunctions

     init_run     :     11.59s CPU     11.86s WALL (       1 calls)
     electrons    :    435.60s CPU    444.33s WALL (       1 calls)

     Called by init_run:
     wfcinit      :      5.22s CPU      5.33s WALL (       1 calls)
     potinit      :      5.71s CPU      5.76s WALL (       1 calls)
     hinit0       :      0.05s CPU      0.06s WALL (       1 calls)

     Called by electrons:
     c_bands      :    364.68s CPU    367.68s WALL (      23 calls)
     sum_band     :     46.90s CPU     49.45s WALL (      23 calls)
     v_of_rho     :     14.53s CPU     15.37s WALL (      23 calls)
     newd         :      8.35s CPU     10.76s WALL (      23 calls)
     PAW_pot      :      1.45s CPU      1.49s WALL (      23 calls)
     mix_rho      :      5.54s CPU      5.56s WALL (      23 calls)
     vdW_kernel   :      5.26s CPU      5.26s WALL (       1 calls)

     Called by c_bands:
     init_us_2    :      3.04s CPU      3.06s WALL (    1410 calls)
     cegterg      :    357.05s CPU    359.92s WALL (     690 calls)

     Called by *egterg:
     cdiaghg      :     11.83s CPU     11.86s WALL (    3537 calls)
     h_psi        :    155.65s CPU    156.58s WALL (    3597 calls)
     s_psi        :     32.30s CPU     32.34s WALL (    3597 calls)
     g_psi        :      0.61s CPU      0.61s WALL (    2877 calls)

     Called by h_psi:
     h_psi:calbec :     46.09s CPU     46.52s WALL (    3597 calls)
     vloc_psi     :     69.25s CPU     69.71s WALL (    3597 calls)
                                        0.00s GPU  (    3597 calls)
     add_vuspsi   :     39.70s CPU     39.74s WALL (    3597 calls)

     General routines
     calbec       :     65.63s CPU     66.21s WALL (    4287 calls)
     fft          :      5.20s CPU      5.29s WALL (    1448 calls)
     ffts         :      1.94s CPU      1.94s WALL (    2629 calls)
     fftw         :     75.25s CPU     75.74s WALL (  210494 calls)
     interpolate  :      0.10s CPU      0.11s WALL (      23 calls)

     Parallel routines

     PWSCF        :   7m27.93s CPU   7m37.27s WALL


   This run was terminated on:  13:59:48  20Jun2026            

=------------------------------------------------------------------------------=
   JOB DONE.
=------------------------------------------------------------------------------=
Note: The following floating-point exceptions are signalling: IEEE_UNDERFLOW_FLAG IEEE_DENORMAL
Note: The following floating-point exceptions are signalling: IEEE_UNDERFLOW_FLAG IEEE_DENORMAL
Note: The following floating-point exceptions are signalling: IEEE_UNDERFLOW_FLAG IEEE_DENORMAL
Note: The following floating-point exceptions are signalling: IEEE_UNDERFLOW_FLAG IEEE_DENORMAL
Note: The following floating-point exceptions are signalling: IEEE_UNDERFLOW_FLAG IEEE_DENORMAL
Note: The following floating-point exceptions are signalling: IEEE_UNDERFLOW_FLAG IEEE_DENORMAL
Note: The following floating-point exceptions are signalling: IEEE_UNDERFLOW_FLAG IEEE_DENORMAL
Note: The following floating-point exceptions are signalling: IEEE_UNDERFLOW_FLAG IEEE_DENORMAL
Note: The following floating-point exceptions are signalling: IEEE_UNDERFLOW_FLAG IEEE_DENORMAL
Note: The following floating-point exceptions are signalling: IEEE_UNDERFLOW_FLAG IEEE_DENORMAL
Note: The following floating-point exceptions are signalling: IEEE_UNDERFLOW_FLAG IEEE_DENORMAL
Note: The following floating-point exceptions are signalling: IEEE_UNDERFLOW_FLAG IEEE_DENORMAL
Note: The following floating-point exceptions are signalling: IEEE_UNDERFLOW_FLAG IEEE_DENORMAL
Note: The following floating-point exceptions are signalling: IEEE_UNDERFLOW_FLAG IEEE_DENORMAL
Note: The following floating-point exceptions are signalling: IEEE_UNDERFLOW_FLAG IEEE_DENORMAL
Note: The following floating-point exceptions are signalling: IEEE_UNDERFLOW_FLAG IEEE_DENORMAL
Note: The following floating-point exceptions are signalling: IEEE_UNDERFLOW_FLAG IEEE_DENORMAL
Note: The following floating-point exceptions are signalling: IEEE_UNDERFLOW_FLAG IEEE_DENORMAL
Note: The following floating-point exceptions are signalling: IEEE_UNDERFLOW_FLAG IEEE_DENORMAL
Note: The following floating-point exceptions are signalling: IEEE_UNDERFLOW_FLAG IEEE_DENORMAL
Note: The following floating-point exceptions are signalling: IEEE_UNDERFLOW_FLAG IEEE_DENORMAL
Note: The following floating-point exceptions are signalling: IEEE_UNDERFLOW_FLAG IEEE_DENORMAL
Note: The following floating-point exceptions are signalling: IEEE_UNDERFLOW_FLAG IEEE_DENORMAL
Note: The following floating-point exceptions are signalling: IEEE_UNDERFLOW_FLAG IEEE_DENORMAL
