
     Program PWSCF v.7.5 starts on 20Jun2026 at  9:26: 2 

     This program is part of the open-source Quantum ESPRESSO suite
     for quantum simulation of materials; please cite
         "P. Giannozzi et al., J. Phys.:Condens. Matter 21 395502 (2009);
         "P. Giannozzi et al., J. Phys.:Condens. Matter 29 465901 (2017);
         "P. Giannozzi et al., J. Chem. Phys. 152 154105 (2020);
          URL http://www.quantum-espresso.org", 
     in publications or presentations arising from this work. More details at
     http://www.quantum-espresso.org/quote

     Parallel version (MPI), running on    24 processors

     MPI processes distributed on     1 nodes
     6090 MiB available memory on the printing compute node when the environment starts

     Waiting for input...
     Reading input from standard input

     Current dimensions of program PWSCF are:
     Max number of different atomic species (ntypx) = 10
     Max number of k-points (npk) =  40000
     Max angular momentum in pseudopotentials (lmaxx) =  4
     file Mo.pbe-spn-kjpaw_psl.1.0.0.UPF: wavefunction(s)  4S 4D renormalized
     file Se.pbe-dn-kjpaw_psl.1.0.0.UPF: wavefunction(s)  4S 4P 3D renormalized

     IMPORTANT: XC functional enforced from input :
     Exchange-correlation= VDW-DF2-B86R
                           (   1   4  26   0   2   0   0)
     Any further DFT definition will be discarded
     Please, verify this is what you really want


     R & G space division:  proc/nbgrp/npool/nimage =      24
     Subspace diagonalization in iterative solution of the eigenvalue problem:
     a serial algorithm will be used


     Parallelization info
     --------------------
     sticks:   dense  smooth     PW     G-vecs:    dense   smooth      PW
     Min          69      35     10                35537    12585    1924
     Max          70      36     11                35620    12648    1981
     Sum        1675     847    241               853823   302525   46513

     Using Slab Decomposition



     bravais-lattice index     =            4
     lattice parameter (alat)  =       6.1794  a.u.
     unit-cell volume          =    3124.5879 (a.u.)^3
     number of atoms/cell      =            6
     number of atomic types    =            2
     number of electrons       =        92.00
     number of Kohn-Sham states=           55
     kinetic-energy cutoff     =      80.0000  Ry
     charge density cutoff     =     640.0000  Ry
     scf convergence threshold =      1.0E-08
     mixing beta               =       0.3000
     number of iterations used =            8  local-TF  mixing
     Exchange-correlation= VDW-DF2-B86R
                           (   1   4  26   0   2   0   0)

     celldm(1)=   6.179404  celldm(2)=   0.000000  celldm(3)=  15.290520
     celldm(4)=   0.000000  celldm(5)=   0.000000  celldm(6)=   0.000000

     crystal axes: (cart. coord. in units of alat)
               a(1) = (   1.000000   0.000000   0.000000 )  
               a(2) = (  -0.500000   0.866025   0.000000 )  
               a(3) = (   0.000000   0.000000  15.290520 )  

     reciprocal axes: (cart. coord. in units 2 pi/alat)
               b(1) = (  1.000000  0.577350 -0.000000 )  
               b(2) = (  0.000000  1.154701  0.000000 )  
               b(3) = (  0.000000 -0.000000  0.065400 )  


     PseudoPot. # 1 for Mo read from file:
     ./pseudo/Mo.pbe-spn-kjpaw_psl.1.0.0.UPF
     MD5 check sum: 4396e0c640fcce5c25f020efccf1ab12
     Pseudo is Projector augmented-wave + core cor, Zval = 14.0
     Generated using &quot;atomic&quot; code by A. Dal Corso  v.6.3
     Shape of augmentation charge: PSQ
     Using radial grid of 1229 points,  6 beta functions with: 
                l(1) =   0
                l(2) =   0
                l(3) =   1
                l(4) =   1
                l(5) =   2
                l(6) =   2
     Q(r) pseudized with 0 coefficients 


     PseudoPot. # 2 for Se read from file:
     ./pseudo/Se.pbe-dn-kjpaw_psl.1.0.0.UPF
     MD5 check sum: ac240dd2bae32a30e0bf3a38df9c8785
     Pseudo is Projector augmented-wave + core cor, Zval = 16.0
     Generated using &quot;atomic&quot; code by A. Dal Corso  v.6.3
     Shape of augmentation charge: PSQ
     Using radial grid of 1211 points,  6 beta functions with: 
                l(1) =   0
                l(2) =   0
                l(3) =   1
                l(4) =   1
                l(5) =   2
                l(6) =   2
     Q(r) pseudized with 0 coefficients 


     atomic species   valence    mass     pseudopotential
     Mo               14.00    95.96000     Mo( 1.00)
     Se               16.00    78.96000     Se( 1.00)

      6 Sym. Ops. (no inversion) found



   Cartesian axes

     site n.     atom                  positions (alat units)
         1        Se     tau(   1) = (  -0.0000005   0.5773506   6.1238532  )
         2        Mo     tau(   2) = (   0.0000000   0.0000000   6.6502752  )
         3        Se     tau(   3) = (   0.5000005   0.2886748   7.1775994  )
         4        Se     tau(   4) = (  -0.0000005   0.5773506   8.4181498  )
         5        Mo     tau(   5) = (   0.5000005   0.2886748   8.9453364  )
         6        Se     tau(   6) = (   0.0000000   0.0000000   9.4724771  )

     number of k points=    30  Methfessel-Paxton smearing, width (Ry)=  0.0200
                       cart. coord. in units 2pi/alat
        k(    1) = (   0.0000000   0.0000000   0.0000000), wk =   0.0078125
        k(    2) = (   0.0000000   0.0721688   0.0000000), wk =   0.0468750
        k(    3) = (   0.0000000   0.1443376   0.0000000), wk =   0.0468750
        k(    4) = (   0.0000000   0.2165064   0.0000000), wk =   0.0468750
        k(    5) = (   0.0000000   0.2886751   0.0000000), wk =   0.0468750
        k(    6) = (   0.0000000   0.3608439   0.0000000), wk =   0.0468750
        k(    7) = (   0.0000000   0.4330127   0.0000000), wk =   0.0468750
        k(    8) = (   0.0000000   0.5051815   0.0000000), wk =   0.0468750
        k(    9) = (   0.0000000  -0.5773503   0.0000000), wk =   0.0234375
        k(   10) = (   0.0625000   0.1082532   0.0000000), wk =   0.0468750
        k(   11) = (   0.0625000   0.1804220   0.0000000), wk =   0.0937500
        k(   12) = (   0.0625000   0.2525907   0.0000000), wk =   0.0937500
        k(   13) = (   0.0625000   0.3247595   0.0000000), wk =   0.0937500
        k(   14) = (   0.0625000   0.3969283   0.0000000), wk =   0.0937500
        k(   15) = (   0.0625000   0.4690971   0.0000000), wk =   0.0937500
        k(   16) = (   0.0625000   0.5412659   0.0000000), wk =   0.0937500
        k(   17) = (   0.1250000   0.2165064   0.0000000), wk =   0.0468750
        k(   18) = (   0.1250000   0.2886751   0.0000000), wk =   0.0937500
        k(   19) = (   0.1250000   0.3608439   0.0000000), wk =   0.0937500
        k(   20) = (   0.1250000   0.4330127   0.0000000), wk =   0.0937500
        k(   21) = (   0.1250000   0.5051815   0.0000000), wk =   0.0937500
        k(   22) = (   0.1250000   0.5773503   0.0000000), wk =   0.0468750
        k(   23) = (   0.1875000   0.3247595   0.0000000), wk =   0.0468750
        k(   24) = (   0.1875000   0.3969283   0.0000000), wk =   0.0937500
        k(   25) = (   0.1875000   0.4690971   0.0000000), wk =   0.0937500
        k(   26) = (   0.1875000   0.5412659   0.0000000), wk =   0.0937500
        k(   27) = (   0.2500000   0.4330127   0.0000000), wk =   0.0468750
        k(   28) = (   0.2500000   0.5051815   0.0000000), wk =   0.0937500
        k(   29) = (   0.2500000   0.5773503   0.0000000), wk =   0.0468750
        k(   30) = (   0.3125000   0.5412659   0.0000000), wk =   0.0468750

     Dense  grid:   853823 G-vectors     FFT dimensions: (  50,  50, 768)

     Smooth grid:   302525 G-vectors     FFT dimensions: (  36,  36, 540)

     Estimated max dynamical RAM per process >     171.88 MB

     Estimated total dynamical RAM >       4.03 GB

     Initial potential from superposition of free atoms

     starting charge      91.9979, renormalised to      92.0000

     negative rho (up, down):  1.928E-04 0.000E+00


     %%%%%%%%%%%%%%%%%%%%%%%%%%%%%%%%%%%%%%%%%%%%%%%%%%%%%%%%%%%%%%%%%%%%%%%%
     %                                                                      %
     % You are using vdW-DF, which was implemented by the Thonhauser group. %
     % Please cite the following two papers that made this development      %
     % possible and the two reviews that describe the various versions:     %
     %                                                                      %
     %   T. Thonhauser et al., PRL 115, 136402 (2015).                      %
     %   T. Thonhauser et al., PRB 76, 125112 (2007).                       %
     %   K. Berland et al., Rep. Prog. Phys. 78, 066501 (2015).             %
     %   D.C. Langreth et al., J. Phys.: Condens. Matter 21, 084203 (2009). %
     %                                                                      %
     % If you are calculating stress with vdW-DF, please also cite:         %
     %                                                                      %
     %   R. Sabatini et al., J. Phys.: Condens. Matter 24, 424209 (2012).   %
     %                                                                      %
     %%%%%%%%%%%%%%%%%%%%%%%%%%%%%%%%%%%%%%%%%%%%%%%%%%%%%%%%%%%%%%%%%%%%%%%%

     %%%%%%%%%%%%%%%%%%%%%%%%%%%%%%%%%%%%%%%%%%%%%%%%%%%%%%%%%%%%%%%%%%%%%%%%
     %                                                                      %
     %  vdW-DF NEWS:                                                        %
     %                                                                      %
     %  * vdW-DF3 is now available. DOI: 10.1021/acs.jctc.0c00471           %
     %    use with input_dft = 'vdW-DF3-opt1' or 'vdW-DF3-opt2'             %
     %                                                                      %
     %  * Unscreened and range-separated hybrid vdW-DF-cx functionals       %
     %    DOI: 10.1063/1.4986522 and 10.1088/1361-648X/ac2ad2               %
     %    use with input_dft = 'vdW-DF-cx0'    and 'vdW-DF-ahcx'            %
     %  * Unscreened and range-separated hybrid vdW-DF2-b86r functionals    %
     %    DOI: 10.1063/1.4986522 and DOI: 10.1103/PhysRevX.12.041003        %
     %    use with input_dft = 'vdW-DF2-br0' and 'vdW-DF2-ahbr'             %
     %                                                                      %
     %%%%%%%%%%%%%%%%%%%%%%%%%%%%%%%%%%%%%%%%%%%%%%%%%%%%%%%%%%%%%%%%%%%%%%%%


     Starting wfcs are   56 randomized atomic wfcs
     Checking if some PAW data can be deallocated... 

     total cpu time spent up to now is       12.1 secs

     per-process dynamical memory:    79.7 Mb

     Self-consistent Calculation

     iteration #  1     ecut=    80.00 Ry     beta= 0.30
     Davidson diagonalization with overlap
     ethr =  1.00E-02,  avg # of iterations =  4.2

     Threshold (ethr) on eigenvalues was too large:
     Diagonalizing with lowered threshold

     Davidson diagonalization with overlap
     ethr =  4.38E-04,  avg # of iterations =  2.0

     negative rho (up, down):  6.338E-05 0.000E+00

     total cpu time spent up to now is       50.2 secs

     total energy              =   -2326.97121176 Ry
     estimated scf accuracy    <       0.45026719 Ry

     iteration #  2     ecut=    80.00 Ry     beta= 0.30
     Davidson diagonalization with overlap
     ethr =  4.89E-04,  avg # of iterations =  1.4

     negative rho (up, down):  4.934E-05 0.000E+00

     total cpu time spent up to now is       66.5 secs

     total energy              =   -2326.92508567 Ry
     estimated scf accuracy    <       0.23378021 Ry

     iteration #  3     ecut=    80.00 Ry     beta= 0.30
     Davidson diagonalization with overlap
     ethr =  2.54E-04,  avg # of iterations =  4.8

     negative rho (up, down):  2.810E-05 0.000E+00

     total cpu time spent up to now is       85.6 secs

     total energy              =   -2326.93246196 Ry
     estimated scf accuracy    <       0.02832484 Ry

     iteration #  4     ecut=    80.00 Ry     beta= 0.30
     Davidson diagonalization with overlap
     ethr =  3.08E-05,  avg # of iterations =  8.4

     negative rho (up, down):  1.507E-05 0.000E+00

     total cpu time spent up to now is      107.2 secs

     total energy              =   -2326.93303020 Ry
     estimated scf accuracy    <       0.00822101 Ry

     iteration #  5     ecut=    80.00 Ry     beta= 0.30
     Davidson diagonalization with overlap
     ethr =  8.94E-06,  avg # of iterations =  4.7

     negative rho (up, down):  1.428E-06 0.000E+00

     total cpu time spent up to now is      127.4 secs

     total energy              =   -2326.93282167 Ry
     estimated scf accuracy    <       0.00356669 Ry

     iteration #  6     ecut=    80.00 Ry     beta= 0.30
     Davidson diagonalization with overlap
     ethr =  3.88E-06,  avg # of iterations =  4.9

     negative rho (up, down):  5.213E-07 0.000E+00

     total cpu time spent up to now is      146.9 secs

     total energy              =   -2326.93269372 Ry
     estimated scf accuracy    <       0.00203860 Ry

     iteration #  7     ecut=    80.00 Ry     beta= 0.30
     Davidson diagonalization with overlap
     ethr =  2.22E-06,  avg # of iterations =  4.8

     negative rho (up, down):  7.134E-04 0.000E+00

     total cpu time spent up to now is      165.2 secs

     total energy              =   -2326.93243423 Ry
     estimated scf accuracy    <       0.00188039 Ry

     iteration #  8     ecut=    80.00 Ry     beta= 0.30
     Davidson diagonalization with overlap
     ethr =  2.04E-06,  avg # of iterations =  6.1

     negative rho (up, down):  2.014E-03 0.000E+00

     total cpu time spent up to now is      184.2 secs

     total energy              =   -2326.93237702 Ry
     estimated scf accuracy    <       0.00103158 Ry

     iteration #  9     ecut=    80.00 Ry     beta= 0.30
     Davidson diagonalization with overlap
     ethr =  1.12E-06,  avg # of iterations =  3.1

     negative rho (up, down):  2.618E-03 0.000E+00

     total cpu time spent up to now is      202.1 secs

     total energy              =   -2326.93239471 Ry
     estimated scf accuracy    <       0.00063676 Ry

     iteration # 10     ecut=    80.00 Ry     beta= 0.30
     Davidson diagonalization with overlap
     ethr =  6.92E-07,  avg # of iterations =  6.4

     negative rho (up, down):  5.032E-03 0.000E+00

     total cpu time spent up to now is      221.6 secs

     total energy              =   -2326.93239408 Ry
     estimated scf accuracy    <       0.00039963 Ry

     iteration # 11     ecut=    80.00 Ry     beta= 0.30
     Davidson diagonalization with overlap
     ethr =  4.34E-07,  avg # of iterations =  4.8

     negative rho (up, down):  4.095E-03 0.000E+00

     total cpu time spent up to now is      239.6 secs

     total energy              =   -2326.93234627 Ry
     estimated scf accuracy    <       0.00033307 Ry

     iteration # 12     ecut=    80.00 Ry     beta= 0.30
     Davidson diagonalization with overlap
     ethr =  3.62E-07,  avg # of iterations =  2.5

     negative rho (up, down):  5.570E-03 0.000E+00

     total cpu time spent up to now is      256.5 secs

     total energy              =   -2326.93231843 Ry
     estimated scf accuracy    <       0.00023652 Ry

     iteration # 13     ecut=    80.00 Ry     beta= 0.30
     Davidson diagonalization with overlap
     ethr =  2.57E-07,  avg # of iterations =  4.8

     negative rho (up, down):  6.096E-03 0.000E+00

     total cpu time spent up to now is      273.9 secs

     total energy              =   -2326.93225528 Ry
     estimated scf accuracy    <       0.00016840 Ry

     iteration # 14     ecut=    80.00 Ry     beta= 0.30
     Davidson diagonalization with overlap
     ethr =  1.83E-07,  avg # of iterations =  4.2

     negative rho (up, down):  5.141E-03 0.000E+00

     total cpu time spent up to now is      291.2 secs

     total energy              =   -2326.93228400 Ry
     estimated scf accuracy    <       0.00011233 Ry

     iteration # 15     ecut=    80.00 Ry     beta= 0.30
     Davidson diagonalization with overlap
     ethr =  1.22E-07,  avg # of iterations =  3.9

     negative rho (up, down):  4.090E-03 0.000E+00

     total cpu time spent up to now is      308.4 secs

     total energy              =   -2326.93227538 Ry
     estimated scf accuracy    <       0.00007333 Ry

     iteration # 16     ecut=    80.00 Ry     beta= 0.30
     Davidson diagonalization with overlap
     ethr =  7.97E-08,  avg # of iterations =  4.4

     negative rho (up, down):  2.826E-03 0.000E+00

     total cpu time spent up to now is      326.9 secs

     total energy              =   -2326.93227210 Ry
     estimated scf accuracy    <       0.00003615 Ry

     iteration # 17     ecut=    80.00 Ry     beta= 0.30
     Davidson diagonalization with overlap
     ethr =  3.93E-08,  avg # of iterations =  3.7

     negative rho (up, down):  1.616E-03 0.000E+00

     total cpu time spent up to now is      344.0 secs

     total energy              =   -2326.93230735 Ry
     estimated scf accuracy    <       0.00001375 Ry

     iteration # 18     ecut=    80.00 Ry     beta= 0.30
     Davidson diagonalization with overlap
     ethr =  1.49E-08,  avg # of iterations =  5.3

     negative rho (up, down):  7.745E-04 0.000E+00

     total cpu time spent up to now is      364.7 secs

     total energy              =   -2326.93231940 Ry
     estimated scf accuracy    <       0.00000457 Ry

     iteration # 19     ecut=    80.00 Ry     beta= 0.30
     Davidson diagonalization with overlap
     ethr =  4.96E-09,  avg # of iterations =  5.5

     negative rho (up, down):  5.011E-04 0.000E+00

     total cpu time spent up to now is      384.8 secs

     total energy              =   -2326.93232398 Ry
     estimated scf accuracy    <       0.00000148 Ry

     iteration # 20     ecut=    80.00 Ry     beta= 0.30
     Davidson diagonalization with overlap
     ethr =  1.61E-09,  avg # of iterations =  1.5

     negative rho (up, down):  2.546E-04 0.000E+00

     total cpu time spent up to now is      401.5 secs

     total energy              =   -2326.93232769 Ry
     estimated scf accuracy    <       0.00000079 Ry

     iteration # 21     ecut=    80.00 Ry     beta= 0.30
     Davidson diagonalization with overlap
     ethr =  8.58E-10,  avg # of iterations =  3.8

     negative rho (up, down):  2.479E-04 0.000E+00

     total cpu time spent up to now is      421.8 secs

     total energy              =   -2326.93232761 Ry
     estimated scf accuracy    <       0.00000010 Ry

     iteration # 22     ecut=    80.00 Ry     beta= 0.30
     Davidson diagonalization with overlap
     ethr =  1.09E-10,  avg # of iterations =  1.9

     negative rho (up, down):  2.520E-04 0.000E+00

     total cpu time spent up to now is      438.8 secs

     total energy              =   -2326.93232723 Ry
     estimated scf accuracy    <       0.00000005 Ry

     iteration # 23     ecut=    80.00 Ry     beta= 0.30
     Davidson diagonalization with overlap
     ethr =  5.17E-11,  avg # of iterations =  2.4

     negative rho (up, down):  2.276E-04 0.000E+00

     total cpu time spent up to now is      459.8 secs

     End of self-consistent calculation

          k = 0.0000 0.0000 0.0000 ( 37787 PWs)   bands (ev):

   -61.9000 -61.8975 -48.2992 -48.2992 -48.2978 -48.2978 -48.2955 -48.2955
   -48.2938 -48.2938 -48.2548 -48.2548 -48.2520 -48.2520 -48.2516 -48.2516
   -48.2481 -48.2481 -48.2366 -48.2334 -48.2332 -48.2294 -36.0185 -36.0167
   -35.9031 -35.9031 -35.8997 -35.8997 -15.3089 -15.2842 -14.4966 -14.4610
    -6.5335  -6.3631  -3.5888  -3.3649  -3.3649  -3.3565  -3.3565  -3.1067
    -1.7064  -1.4220  -1.0684  -1.0684  -1.0637  -1.0637   0.2233   0.2233
     0.2337   0.2337   2.9391   2.9391   2.9540   2.9540   3.4191

          k = 0.0000 0.0722 0.0000 ( 37755 PWs)   bands (ev):

   -61.8991 -61.8966 -48.2992 -48.2991 -48.2977 -48.2976 -48.2955 -48.2954
   -48.2938 -48.2936 -48.2549 -48.2549 -48.2520 -48.2520 -48.2516 -48.2516
   -48.2482 -48.2482 -48.2365 -48.2333 -48.2331 -48.2293 -36.0163 -36.0145
   -35.9137 -35.9103 -35.9056 -35.9021 -15.2521 -15.2274 -14.4668 -14.4318
    -6.4560  -6.2854  -3.9501  -3.7522  -3.3329  -3.3245  -3.0633  -2.7923
    -1.7262  -1.5010  -1.2647  -1.2306  -1.2155  -1.2103   0.1076   0.1433
     0.3358   0.3466   2.6267   2.6383   2.8887   2.9069   3.5304

          k = 0.0000 0.1443 0.0000 ( 37697 PWs)   bands (ev):

   -61.8963 -61.8938 -48.2992 -48.2985 -48.2977 -48.2970 -48.2955 -48.2948
   -48.2938 -48.2930 -48.2551 -48.2549 -48.2522 -48.2521 -48.2518 -48.2517
   -48.2484 -48.2482 -48.2362 -48.2331 -48.2328 -48.2291 -36.0099 -36.0081
   -35.9439 -35.9404 -35.9125 -35.9090 -15.0856 -15.0612 -14.3797 -14.3463
    -6.2312  -6.0610  -4.4072  -4.2467  -3.2576  -3.2492  -2.8375  -2.6058
    -2.1067  -2.0452  -1.5328  -1.5032  -1.4970  -1.3501  -0.0391   0.0642
     0.5249   0.5377   2.0071   2.0869   2.7859   2.8096   3.7965

          k = 0.0000 0.2165 0.0000 ( 37653 PWs)   bands (ev):

   -61.8922 -61.8897 -48.2992 -48.2977 -48.2977 -48.2962 -48.2955 -48.2940
   -48.2937 -48.2922 -48.2553 -48.2550 -48.2524 -48.2522 -48.2521 -48.2517
   -48.2486 -48.2483 -48.2358 -48.2327 -48.2324 -48.2287 -36.0007 -35.9989
   -35.9883 -35.9849 -35.9229 -35.9194 -14.8223 -14.7986 -14.2417 -14.2110
    -5.8904  -5.7236  -4.8164  -4.6863  -3.2714  -3.2510  -3.2061  -3.1976
    -2.5457  -2.3369  -1.7273  -1.7198  -1.6204  -1.4817  -0.0931   0.0525
     0.6296   0.6449   1.5953   1.7991   2.7175   2.7464   4.1706

          k = 0.0000 0.2887 0.0000 ( 37721 PWs)   bands (ev):

   -61.8874 -61.8848 -48.2992 -48.2977 -48.2968 -48.2955 -48.2953 -48.2937
   -48.2931 -48.2914 -48.2557 -48.2551 -48.2527 -48.2524 -48.2523 -48.2519
   -48.2489 -48.2484 -48.2354 -48.2322 -48.2320 -48.2282 -36.0414 -36.0379
   -35.9887 -35.9870 -35.9350 -35.9316 -14.4884 -14.4660 -14.0617 -14.0347
    -5.5680  -5.4284  -5.0473  -4.9273  -4.2880  -4.2756  -3.2608  -3.2520
    -2.7077  -2.5469  -1.8503  -1.7717  -1.7693  -1.7623  -0.0323   0.1415
     0.6340   0.6500   1.6497   1.9729   2.7158   2.7501   4.6408

          k = 0.0000 0.3608 0.0000 ( 37749 PWs)   bands (ev):

   -61.8825 -61.8800 -48.2992 -48.2976 -48.2959 -48.2955 -48.2944 -48.2937
   -48.2922 -48.2905 -48.2560 -48.2553 -48.2530 -48.2527 -48.2523 -48.2520
   -48.2491 -48.2485 -48.2349 -48.2318 -48.2315 -48.2278 -36.0934 -36.0898
   -35.9774 -35.9757 -35.9472 -35.9437 -14.1387 -14.1188 -13.8398 -13.8169
    -5.6425  -5.5737  -5.2527  -5.2290  -4.7919  -4.6644  -3.4096  -3.4006
    -3.0404  -2.9319  -2.1115  -2.0429  -1.6680  -1.6553   0.2251   0.3928
     0.6122   0.6255   2.0346   2.4183   2.7493   2.7893   5.1519

          k = 0.0000 0.4330 0.0000 ( 37785 PWs)   bands (ev):

   -61.8784 -61.8759 -48.2992 -48.2976 -48.2955 -48.2951 -48.2937 -48.2936
   -48.2915 -48.2897 -48.2563 -48.2554 -48.2532 -48.2530 -48.2524 -48.2521
   -48.2493 -48.2486 -48.2346 -48.2314 -48.2311 -48.2274 -36.1371 -36.1335
   -35.9678 -35.9661 -35.9575 -35.9540 -13.8724 -13.8566 -13.5587 -13.5401
    -6.2104  -6.1948  -5.6214  -5.5469  -4.5736  -4.5066  -3.5689  -3.5597
    -3.2998  -3.1817  -2.2786  -2.2243  -1.5367  -1.5194   0.6055   0.6294
     0.6378   0.7373   2.5406   2.7831   2.8282   2.9090   4.9990

          k = 0.0000 0.5052 0.0000 ( 37822 PWs)   bands (ev):

   -61.8756 -61.8731 -48.2992 -48.2976 -48.2955 -48.2946 -48.2936 -48.2932
   -48.2909 -48.2892 -48.2565 -48.2554 -48.2533 -48.2532 -48.2525 -48.2521
   -48.2495 -48.2487 -48.2343 -48.2312 -48.2309 -48.2271 -36.1662 -36.1625
   -35.9644 -35.9613 -35.9609 -35.9596 -13.7247 -13.7131 -13.2945 -13.2807
    -6.7678  -6.7527  -5.6321  -5.5778  -4.7296  -4.6821  -3.6811  -3.6718
    -3.1826  -3.0625  -2.3986  -2.3614  -1.4517  -1.4303   0.6804   0.6855
     0.9711   1.0526   2.8038   2.8525   3.0127   3.2753   4.5319

          k = 0.0000-0.5774 0.0000 ( 37832 PWs)   bands (ev):

   -61.8747 -61.8721 -48.2992 -48.2976 -48.2955 -48.2945 -48.2936 -48.2930
   -48.2908 -48.2890 -48.2566 -48.2554 -48.2533 -48.2532 -48.2525 -48.2522
   -48.2495 -48.2487 -48.2342 -48.2311 -48.2308 -48.2270 -36.1763 -36.1727
   -35.9668 -35.9633 -35.9591 -35.9574 -13.6761 -13.6665 -13.1864 -13.1755
    -6.9726  -6.9586  -5.5888  -5.5626  -4.8727  -4.8232  -3.7208  -3.7114
    -3.0444  -2.9449  -2.4642  -2.4324  -1.4249  -1.4019   0.7082   0.7130
     1.1369   1.1802   2.8104   2.8603   3.2678   3.4287   4.2091

          k = 0.0625 0.1083 0.0000 ( 37709 PWs)   bands (ev):

   -61.8972 -61.8947 -48.2992 -48.2987 -48.2977 -48.2972 -48.2955 -48.2950
   -48.2937 -48.2932 -48.2550 -48.2549 -48.2522 -48.2521 -48.2517 -48.2516
   -48.2483 -48.2482 -48.2363 -48.2332 -48.2329 -48.2291 -36.0120 -36.0102
   -35.9338 -35.9303 -35.9106 -35.9071 -15.1404 -15.1159 -14.4084 -14.3744
    -6.3044  -6.1339  -4.2850  -4.1146  -3.2864  -3.2781  -2.8691  -2.6071
    -1.9091  -1.8452  -1.5164  -1.4929  -1.4337  -1.2847   0.0292   0.1145
     0.4260   0.4363   2.2473   2.2967   2.7485   2.7613   3.7156

          k = 0.0625 0.1804 0.0000 ( 37703 PWs)   bands (ev):

   -61.8938 -61.8913 -48.2991 -48.2981 -48.2977 -48.2966 -48.2955 -48.2944
   -48.2937 -48.2926 -48.2552 -48.2550 -48.2524 -48.2521 -48.2520 -48.2517
   -48.2485 -48.2483 -48.2360 -48.2328 -48.2326 -48.2288 -36.0040 -36.0022
   -35.9704 -35.9669 -35.9200 -35.9166 -14.9250 -14.9010 -14.2959 -14.2642
    -6.0169  -5.8477  -4.6785  -4.5381  -3.2809  -3.2727  -2.8803  -2.7648
    -2.4943  -2.4081  -1.7878  -1.7282  -1.4812  -1.3174   0.0115   0.1286
     0.4275   0.4415   1.8958   2.0241   2.5719   2.5909   4.0300

          k = 0.0625 0.2526 0.0000 ( 37702 PWs)   bands (ev):

   -61.8893 -61.8868 -48.2991 -48.2976 -48.2972 -48.2958 -48.2954 -48.2937
   -48.2935 -48.2918 -48.2555 -48.2551 -48.2526 -48.2522 -48.2522 -48.2518
   -48.2487 -48.2484 -48.2356 -48.2324 -48.2322 -48.2284 -36.0181 -36.0146
   -35.9934 -35.9916 -35.9324 -35.9289 -14.6244 -14.6014 -14.1380 -14.1095
    -5.6484  -5.4877  -5.0061  -4.8885  -3.8421  -3.8329  -3.2348  -3.2141
    -2.6640  -2.5460  -1.9926  -1.9392  -1.4950  -1.3881  -0.0639   0.0626
     0.4877   0.5471   1.7538   1.9572   2.5440   2.5729   4.4518

          k = 0.0625 0.3248 0.0000 ( 37734 PWs)   bands (ev):

   -61.8844 -61.8819 -48.2991 -48.2976 -48.2963 -48.2954 -48.2949 -48.2936
   -48.2927 -48.2909 -48.2559 -48.2552 -48.2528 -48.2526 -48.2523 -48.2519
   -48.2490 -48.2485 -48.2351 -48.2320 -48.2317 -48.2280 -36.0691 -36.0655
   -35.9821 -35.9804 -35.9458 -35.9423 -14.2750 -14.2539 -13.9421 -13.9175
    -5.5103  -5.4058  -4.9816  -4.8855  -4.7951  -4.7533  -3.4735  -3.4536
    -2.7738  -2.6852  -2.2906  -2.2702  -1.4667  -1.4046  -0.0237   0.1153
     0.6365   0.6886   1.8617   2.1024   2.6237   2.7033   4.9592

          k = 0.0625 0.3969 0.0000 ( 37770 PWs)   bands (ev):

   -61.8800 -61.8774 -48.2990 -48.2975 -48.2955 -48.2954 -48.2941 -48.2935
   -48.2918 -48.2901 -48.2562 -48.2553 -48.2531 -48.2529 -48.2524 -48.2521
   -48.2492 -48.2486 -48.2347 -48.2316 -48.2313 -48.2275 -36.1158 -36.1122
   -35.9717 -35.9699 -35.9581 -35.9546 -13.9569 -13.9391 -13.6956 -13.6752
    -5.8272  -5.8121  -5.5219  -5.4530  -4.6165  -4.5123  -3.7230  -3.6945
    -3.0244  -2.9614  -2.5119  -2.4856  -1.3843  -1.3520   0.1870   0.2933
     0.7927   0.8423   2.1611   2.3316   2.7559   2.9378   5.3413

          k = 0.0625 0.4691 0.0000 ( 37798 PWs)   bands (ev):

   -61.8765 -61.8740 -48.2990 -48.2974 -48.2953 -48.2949 -48.2935 -48.2934
   -48.2912 -48.2895 -48.2564 -48.2554 -48.2532 -48.2531 -48.2525 -48.2521
   -48.2494 -48.2487 -48.2344 -48.2312 -48.2310 -48.2272 -36.1514 -36.1477
   -35.9679 -35.9645 -35.9632 -35.9614 -13.7568 -13.7434 -13.4078 -13.3919
    -6.4811  -6.4657  -5.6260  -5.5620  -4.5817  -4.5347  -3.8192  -3.7876
    -3.1498  -3.0676  -2.6154  -2.5936  -1.3342  -1.3224   0.4541   0.5111
     0.9713   1.0236   2.4377   2.4991   2.9615   3.2019   4.9661

          k = 0.0625 0.5413 0.0000 ( 37791 PWs)   bands (ev):

   -61.8747 -61.8721 -48.2991 -48.2974 -48.2953 -48.2946 -48.2935 -48.2931
   -48.2909 -48.2891 -48.2565 -48.2555 -48.2533 -48.2532 -48.2525 -48.2522
   -48.2495 -48.2487 -48.2342 -48.2311 -48.2308 -48.2270 -36.1705 -36.1669
   -35.9728 -35.9693 -35.9591 -35.9574 -13.6617 -13.6517 -13.2103 -13.1989
    -6.8676  -6.8533  -5.5943  -5.5585  -4.7912  -4.7425  -3.8259  -3.8142
    -3.0395  -2.9560  -2.6833  -2.6708  -1.3312  -1.3276   0.6562   0.6737
     1.1032   1.1462   2.5493   2.5909   3.2098   3.3854   4.4949

          k = 0.1250 0.2165 0.0000 ( 37731 PWs)   bands (ev):

   -61.8900 -61.8875 -48.2991 -48.2976 -48.2974 -48.2960 -48.2954 -48.2937
   -48.2936 -48.2920 -48.2555 -48.2551 -48.2525 -48.2522 -48.2522 -48.2518
   -48.2487 -48.2484 -48.2356 -48.2325 -48.2322 -48.2285 -36.0083 -36.0048
   -35.9952 -35.9934 -35.9330 -35.9295 -14.6711 -14.6478 -14.1641 -14.1351
    -5.6819  -5.5152  -4.9745  -4.8562  -3.6996  -3.6906  -3.0643  -2.9647
    -2.8686  -2.8606  -1.9872  -1.8874  -1.3921  -1.2434   0.0235   0.0714
     0.2596   0.3972   2.0954   2.1704   2.1922   2.2966   4.3901

          k = 0.1250 0.2887 0.0000 ( 37723 PWs)   bands (ev):

   -61.8855 -61.8830 -48.2989 -48.2974 -48.2967 -48.2952 -48.2952 -48.2935
   -48.2930 -48.2912 -48.2558 -48.2552 -48.2528 -48.2525 -48.2523 -48.2519
   -48.2489 -48.2485 -48.2352 -48.2321 -48.2318 -48.2281 -36.0518 -36.0483
   -35.9849 -35.9831 -35.9489 -35.9455 -14.3479 -14.3261 -13.9948 -13.9693
    -5.3607  -5.2319  -5.1308  -5.0039  -4.4679  -4.4590  -3.4871  -3.4416
    -2.9629  -2.9469  -2.2302  -2.1768  -1.2585  -1.1408  -0.2151  -0.1067
     0.5536   0.6712   1.8553   1.8855   2.4006   2.6191   4.8551

          k = 0.1250 0.3608 0.0000 ( 37761 PWs)   bands (ev):

   -61.8810 -61.8785 -48.2988 -48.2973 -48.2960 -48.2951 -48.2945 -48.2933
   -48.2923 -48.2905 -48.2561 -48.2553 -48.2530 -48.2528 -48.2525 -48.2521
   -48.2492 -48.2486 -48.2348 -48.2317 -48.2314 -48.2276 -36.0948 -36.0912
   -35.9750 -35.9732 -35.9647 -35.9613 -14.0063 -13.9872 -13.7915 -13.7700
    -5.5139  -5.4495  -5.2734  -5.2554  -4.7371  -4.6029  -3.8677  -3.8347
    -3.0635  -3.0460  -2.6454  -2.6202  -1.1115  -1.0304  -0.1885  -0.0653
     0.8511   0.9256   1.7578   1.8188   2.6858   2.9422   5.3834

          k = 0.1250 0.4330 0.0000 ( 37768 PWs)   bands (ev):

   -61.8772 -61.8747 -48.2987 -48.2971 -48.2953 -48.2950 -48.2939 -48.2932
   -48.2916 -48.2899 -48.2563 -48.2555 -48.2532 -48.2530 -48.2525 -48.2522
   -48.2493 -48.2487 -48.2345 -48.2313 -48.2310 -48.2273 -36.1308 -36.1272
   -35.9800 -35.9766 -35.9648 -35.9630 -13.7539 -13.7388 -13.5262 -13.5090
    -6.0716  -6.0581  -5.5603  -5.4944  -4.4362  -4.3699  -4.1048  -4.0495
    -3.1748  -3.1589  -2.9958  -2.9662  -1.0619  -1.0145   0.0632   0.1658
     1.0575   1.0956   1.8601   1.9305   2.9555   3.1976   5.5254

          k = 0.1250 0.5052 0.0000 ( 37794 PWs)   bands (ev):

   -61.8747 -61.8721 -48.2987 -48.2971 -48.2950 -48.2949 -48.2935 -48.2931
   -48.2912 -48.2895 -48.2564 -48.2555 -48.2533 -48.2531 -48.2526 -48.2522
   -48.2495 -48.2488 -48.2342 -48.2311 -48.2308 -48.2271 -36.1547 -36.1511
   -35.9891 -35.9856 -35.9591 -35.9574 -13.6195 -13.6086 -13.2749 -13.2624
    -6.5753  -6.5612  -5.5819  -5.5381  -4.5942  -4.5506  -4.0520  -4.0115
    -3.2555  -3.2413  -3.0703  -3.0216  -1.1106  -1.0794   0.4199   0.4841
     1.1136   1.1367   2.0335   2.0863   3.1591   3.3264   5.1025

          k = 0.1250 0.5774 0.0000 ( 37780 PWs)   bands (ev):

   -61.8738 -61.8713 -48.2987 -48.2970 -48.2950 -48.2948 -48.2933 -48.2931
   -48.2911 -48.2893 -48.2565 -48.2556 -48.2533 -48.2532 -48.2526 -48.2523
   -48.2495 -48.2488 -48.2341 -48.2310 -48.2307 -48.2270 -36.1630 -36.1594
   -35.9923 -35.9888 -35.9571 -35.9554 -13.5748 -13.5658 -13.1742 -13.1645
    -6.7589  -6.7448  -5.5626  -5.5412  -4.7106  -4.6625  -4.0402  -4.0155
    -3.2841  -3.2709  -3.0238  -2.9795  -1.1484  -1.1196   0.6479   0.6607
     1.0602   1.0914   2.1338   2.1503   3.2350   3.3648   4.8445

          k = 0.1875 0.3248 0.0000 ( 37725 PWs)   bands (ev):

   -61.8814 -61.8789 -48.2987 -48.2971 -48.2961 -48.2950 -48.2947 -48.2932
   -48.2924 -48.2907 -48.2560 -48.2553 -48.2529 -48.2527 -48.2525 -48.2520
   -48.2491 -48.2486 -48.2349 -48.2317 -48.2314 -48.2277 -36.0852 -36.0816
   -35.9771 -35.9750 -35.9683 -35.9651 -14.0220 -14.0024 -13.8262 -13.8045
    -5.3930  -5.3089  -5.0994  -5.0935  -4.8249  -4.6880  -3.8753  -3.8333
    -3.3397  -3.3303  -2.5187  -2.5089  -0.9611  -0.8515  -0.3638  -0.2421
     0.8395   0.9365   1.5958   1.6057   2.6670   2.9411   5.3519

          k = 0.1875 0.3969 0.0000 ( 37753 PWs)   bands (ev):

   -61.8776 -61.8751 -48.2984 -48.2968 -48.2957 -48.2947 -48.2942 -48.2929
   -48.2920 -48.2902 -48.2562 -48.2555 -48.2531 -48.2529 -48.2526 -48.2522
   -48.2493 -48.2487 -48.2345 -48.2313 -48.2311 -48.2273 -36.1140 -36.1104
   -35.9923 -35.9888 -35.9656 -35.9639 -13.7172 -13.7014 -13.6264 -13.6084
    -5.7004  -5.6925  -5.4812  -5.4183  -4.4235  -4.3095  -4.2199  -4.1800
    -3.6675  -3.6546  -2.9180  -2.9067  -0.7387  -0.6632  -0.2917  -0.1814
     1.0764   1.1330   1.4949   1.5468   2.9609   3.2031   5.8342

          k = 0.1875 0.4691 0.0000 ( 37759 PWs)   bands (ev):

   -61.8747 -61.8721 -48.2982 -48.2966 -48.2954 -48.2945 -48.2939 -48.2926
   -48.2917 -48.2899 -48.2563 -48.2556 -48.2533 -48.2530 -48.2526 -48.2523
   -48.2494 -48.2488 -48.2342 -48.2311 -48.2308 -48.2271 -36.1349 -36.1313
   -36.0094 -36.0059 -35.9591 -35.9574 -13.5540 -13.5422 -13.3623 -13.3489
    -6.1862  -6.1746  -5.5375  -5.4948  -4.4518  -4.4137  -4.1565  -4.0863
    -3.8972  -3.8755  -3.1839  -3.1804  -0.7737  -0.7242   0.0628   0.1388
     1.1340   1.1557   1.6252   1.7118   3.1563   3.2991   5.6523

          k = 0.1875 0.5413 0.0000 ( 37793 PWs)   bands (ev):

   -61.8731 -61.8706 -48.2981 -48.2965 -48.2952 -48.2944 -48.2937 -48.2925
   -48.2915 -48.2897 -48.2564 -48.2557 -48.2533 -48.2531 -48.2527 -48.2524
   -48.2495 -48.2489 -48.2341 -48.2309 -48.2307 -48.2269 -36.1458 -36.1422
   -36.0190 -36.0155 -35.9555 -35.9538 -13.4745 -13.4659 -13.1907 -13.1816
    -6.4647  -6.4509  -5.5548  -5.5335  -4.5472  -4.5036  -4.1833  -4.1460
    -3.9729  -3.9501  -3.2115  -3.1965  -0.8571  -0.8151   0.4509   0.4836
     0.9887   1.0063   1.8453   1.9049   3.1724   3.2593   5.4081

          k = 0.2500 0.4330 0.0000 ( 37711 PWs)   bands (ev):

   -61.8747 -61.8721 -48.2979 -48.2963 -48.2956 -48.2942 -48.2941 -48.2924
   -48.2919 -48.2901 -48.2563 -48.2556 -48.2532 -48.2530 -48.2527 -48.2523
   -48.2494 -48.2488 -48.2342 -48.2311 -48.2308 -48.2271 -36.1244 -36.1209
   -36.0200 -36.0165 -35.9591 -35.9574 -13.4926 -13.4810 -13.4325 -13.4183
    -5.9643  -5.9558  -5.5034  -5.4650  -4.4392  -4.3933  -4.2535  -4.2470
    -4.0860  -4.0024  -3.2922  -3.2640  -0.4054  -0.3304  -0.3117  -0.2593
     1.1203   1.1569   1.4970   1.5949   3.1631   3.2925   5.9609

          k = 0.2500 0.5052 0.0000 ( 37776 PWs)   bands (ev):

   -61.8727 -61.8702 -48.2975 -48.2960 -48.2956 -48.2941 -48.2938 -48.2921
   -48.2918 -48.2902 -48.2563 -48.2558 -48.2534 -48.2531 -48.2527 -48.2525
   -48.2495 -48.2489 -48.2341 -48.2309 -48.2306 -48.2269 -36.1270 -36.1234
   -36.0431 -36.0395 -35.9547 -35.9530 -13.3807 -13.3721 -13.2434 -13.2342
    -6.1140  -6.1016  -5.5441  -5.5259  -4.6763  -4.6666  -4.4135  -4.3678
    -3.9945  -3.9520  -3.5255  -3.5050  -0.4671  -0.4161   0.0424   0.0739
     0.9557   0.9657   1.7657   1.8984   3.1321   3.1621   5.6896

          k = 0.2500 0.5774 0.0000 ( 37791 PWs)   bands (ev):

   -61.8720 -61.8695 -48.2974 -48.2959 -48.2955 -48.2942 -48.2937 -48.2921
   -48.2917 -48.2902 -48.2563 -48.2558 -48.2534 -48.2531 -48.2527 -48.2525
   -48.2496 -48.2489 -48.2340 -48.2308 -48.2306 -48.2268 -36.1264 -36.1228
   -36.0526 -36.0491 -35.9531 -35.9514 -13.3410 -13.3342 -13.1722 -13.1656
    -6.1577  -6.1436  -5.5710  -5.5590  -4.8285  -4.8195  -4.2480  -4.2069
    -4.1883  -4.1584  -3.5235  -3.5094  -0.5141  -0.4689   0.3009   0.3306
     0.7474   0.7611   2.0042   2.0871   3.0023   3.0212   5.5898

          k = 0.3125 0.5413 0.0000 ( 37789 PWs)   bands (ev):

   -61.8717 -61.8691 -48.2969 -48.2961 -48.2953 -48.2945 -48.2932 -48.2924
   -48.2913 -48.2906 -48.2563 -48.2559 -48.2534 -48.2530 -48.2527 -48.2526
   -48.2496 -48.2489 -48.2340 -48.2308 -48.2306 -48.2268 -36.1089 -36.1054
   -36.0751 -36.0715 -35.9523 -35.9506 -13.2613 -13.2552 -13.1990 -13.1934
    -5.8546  -5.8384  -5.5777  -5.5709  -5.2701  -5.2565  -4.2508  -4.2019
    -3.9131  -3.8874  -3.8814  -3.8468  -0.1834  -0.1292   0.0080   0.0466
     0.6532   0.6572   2.1853   2.3228   2.7781   2.8689   5.5471

     the Fermi energy is    -0.3064 ev

!    total energy              =   -2326.93232704 Ry
     total all-electron energy =    -35628.680156 Ry
     estimated scf accuracy    <          7.1E-09 Ry
     smearing contrib. (-TS)   =       0.00088141 Ry
     internal energy E=F+TS    =   -2326.93320844 Ry

     The total energy is F=E-TS. E is the sum of the following terms:
     one-electron contribution =  -27355.55538877 Ry
     hartree contribution      =   13665.98770760 Ry
     xc contribution           =    -152.43199143 Ry
     ewald contribution        =   12525.58079925 Ry
     one-center paw contrib.   =   -1010.51433509 Ry

     convergence has been achieved in  23 iterations

     Writing all to output data dir ./tmp/cleave_005/mose2_cleave_005.save/ :
     XML data file, charge density, pseudopotentials, collected wavefunctions

     init_run     :     11.65s CPU     11.87s WALL (       1 calls)
     electrons    :    435.46s CPU    447.66s WALL (       1 calls)

     Called by init_run:
     wfcinit      :      5.31s CPU      5.36s WALL (       1 calls)
     potinit      :      5.70s CPU      5.75s WALL (       1 calls)
     hinit0       :      0.05s CPU      0.06s WALL (       1 calls)

     Called by electrons:
     c_bands      :    361.81s CPU    369.00s WALL (      24 calls)
     sum_band     :     48.42s CPU     50.84s WALL (      24 calls)
     v_of_rho     :     14.56s CPU     15.39s WALL (      24 calls)
     newd         :      9.34s CPU     11.11s WALL (      24 calls)
     PAW_pot      :      1.48s CPU      1.53s WALL (      24 calls)
     mix_rho      :      5.68s CPU      5.77s WALL (      24 calls)
     vdW_kernel   :      5.26s CPU      5.27s WALL (       1 calls)

     Called by c_bands:
     init_us_2    :      2.04s CPU      2.05s WALL (    1470 calls)
     cegterg      :    350.78s CPU    357.67s WALL (     720 calls)

     Called by *egterg:
     cdiaghg      :      9.65s CPU      9.68s WALL (    3674 calls)
     h_psi        :    140.02s CPU    141.91s WALL (    3734 calls)
     s_psi        :     20.20s CPU     20.23s WALL (    3734 calls)
     g_psi        :      0.29s CPU      0.29s WALL (    2984 calls)

     Called by h_psi:
     h_psi:calbec :     45.88s CPU     46.98s WALL (    3734 calls)
     vloc_psi     :     70.95s CPU     71.71s WALL (    3734 calls)
                                        0.00s GPU  (    3734 calls)
     add_vuspsi   :     22.85s CPU     22.89s WALL (    3734 calls)

     General routines
     calbec       :     65.63s CPU     67.20s WALL (    4454 calls)
     fft          :      6.83s CPU      7.04s WALL (    1511 calls)
     ffts         :      2.18s CPU      2.20s WALL (    2754 calls)
     fftw         :     83.16s CPU     84.06s WALL (  217010 calls)
     interpolate  :      0.11s CPU      0.11s WALL (      24 calls)

     Parallel routines

     PWSCF        :   7m27.74s CPU   7m40.34s WALL


   This run was terminated on:   9:33:42  20Jun2026            

=------------------------------------------------------------------------------=
   JOB DONE.
=------------------------------------------------------------------------------=
Note: The following floating-point exceptions are signalling: IEEE_UNDERFLOW_FLAG IEEE_DENORMAL
Note: The following floating-point exceptions are signalling: IEEE_UNDERFLOW_FLAG IEEE_DENORMAL
Note: The following floating-point exceptions are signalling: IEEE_UNDERFLOW_FLAG IEEE_DENORMAL
Note: The following floating-point exceptions are signalling: IEEE_UNDERFLOW_FLAG IEEE_DENORMAL
Note: The following floating-point exceptions are signalling: IEEE_UNDERFLOW_FLAG IEEE_DENORMAL
Note: The following floating-point exceptions are signalling: IEEE_UNDERFLOW_FLAG IEEE_DENORMAL
Note: The following floating-point exceptions are signalling: IEEE_UNDERFLOW_FLAG IEEE_DENORMAL
Note: The following floating-point exceptions are signalling: IEEE_UNDERFLOW_FLAG IEEE_DENORMAL
Note: The following floating-point exceptions are signalling: IEEE_UNDERFLOW_FLAG IEEE_DENORMAL
Note: The following floating-point exceptions are signalling: IEEE_UNDERFLOW_FLAG IEEE_DENORMAL
Note: The following floating-point exceptions are signalling: IEEE_UNDERFLOW_FLAG IEEE_DENORMAL
Note: The following floating-point exceptions are signalling: IEEE_UNDERFLOW_FLAG IEEE_DENORMAL
Note: The following floating-point exceptions are signalling: IEEE_UNDERFLOW_FLAG IEEE_DENORMAL
Note: The following floating-point exceptions are signalling: IEEE_UNDERFLOW_FLAG IEEE_DENORMAL
Note: The following floating-point exceptions are signalling: IEEE_UNDERFLOW_FLAG IEEE_DENORMAL
Note: The following floating-point exceptions are signalling: IEEE_UNDERFLOW_FLAG IEEE_DENORMAL
Note: The following floating-point exceptions are signalling: IEEE_UNDERFLOW_FLAG IEEE_DENORMAL
Note: The following floating-point exceptions are signalling: IEEE_UNDERFLOW_FLAG IEEE_DENORMAL
Note: The following floating-point exceptions are signalling: IEEE_UNDERFLOW_FLAG IEEE_DENORMAL
Note: The following floating-point exceptions are signalling: IEEE_UNDERFLOW_FLAG IEEE_DENORMAL
Note: The following floating-point exceptions are signalling: IEEE_UNDERFLOW_FLAG IEEE_DENORMAL
Note: The following floating-point exceptions are signalling: IEEE_UNDERFLOW_FLAG IEEE_DENORMAL
Note: The following floating-point exceptions are signalling: IEEE_UNDERFLOW_FLAG IEEE_DENORMAL
Note: The following floating-point exceptions are signalling: IEEE_UNDERFLOW_FLAG IEEE_DENORMAL
