
     Program PWSCF v.7.5 starts on 20Jun2026 at 11:28:48 

     This program is part of the open-source Quantum ESPRESSO suite
     for quantum simulation of materials; please cite
         "P. Giannozzi et al., J. Phys.:Condens. Matter 21 395502 (2009);
         "P. Giannozzi et al., J. Phys.:Condens. Matter 29 465901 (2017);
         "P. Giannozzi et al., J. Chem. Phys. 152 154105 (2020);
          URL http://www.quantum-espresso.org", 
     in publications or presentations arising from this work. More details at
     http://www.quantum-espresso.org/quote

     Parallel version (MPI), running on    24 processors

     MPI processes distributed on     1 nodes
     6509 MiB available memory on the printing compute node when the environment starts

     Waiting for input...
     Reading input from standard input

     Current dimensions of program PWSCF are:
     Max number of different atomic species (ntypx) = 10
     Max number of k-points (npk) =  40000
     Max angular momentum in pseudopotentials (lmaxx) =  4
     file Mo.pbe-spn-kjpaw_psl.1.0.0.UPF: wavefunction(s)  4S 4D renormalized
     file Se.pbe-dn-kjpaw_psl.1.0.0.UPF: wavefunction(s)  4S 4P 3D renormalized

     IMPORTANT: XC functional enforced from input :
     Exchange-correlation= VDW-DF2-B86R
                           (   1   4  26   0   2   0   0)
     Any further DFT definition will be discarded
     Please, verify this is what you really want


     R & G space division:  proc/nbgrp/npool/nimage =      24
     Subspace diagonalization in iterative solution of the eigenvalue problem:
     a serial algorithm will be used


     Parallelization info
     --------------------
     sticks:   dense  smooth     PW     G-vecs:    dense   smooth      PW
     Min          69      35     10                35537    12585    1924
     Max          70      36     11                35620    12648    1981
     Sum        1675     847    241               853823   302525   46513

     Using Slab Decomposition



     bravais-lattice index     =            4
     lattice parameter (alat)  =       6.1794  a.u.
     unit-cell volume          =    3124.5879 (a.u.)^3
     number of atoms/cell      =            6
     number of atomic types    =            2
     number of electrons       =        92.00
     number of Kohn-Sham states=           55
     kinetic-energy cutoff     =      80.0000  Ry
     charge density cutoff     =     640.0000  Ry
     scf convergence threshold =      1.0E-08
     mixing beta               =       0.3000
     number of iterations used =            8  local-TF  mixing
     Exchange-correlation= VDW-DF2-B86R
                           (   1   4  26   0   2   0   0)

     celldm(1)=   6.179404  celldm(2)=   0.000000  celldm(3)=  15.290520
     celldm(4)=   0.000000  celldm(5)=   0.000000  celldm(6)=   0.000000

     crystal axes: (cart. coord. in units of alat)
               a(1) = (   1.000000   0.000000   0.000000 )  
               a(2) = (  -0.500000   0.866025   0.000000 )  
               a(3) = (   0.000000   0.000000  15.290520 )  

     reciprocal axes: (cart. coord. in units 2 pi/alat)
               b(1) = (  1.000000  0.577350 -0.000000 )  
               b(2) = (  0.000000  1.154701  0.000000 )  
               b(3) = (  0.000000 -0.000000  0.065400 )  


     PseudoPot. # 1 for Mo read from file:
     ./pseudo/Mo.pbe-spn-kjpaw_psl.1.0.0.UPF
     MD5 check sum: 4396e0c640fcce5c25f020efccf1ab12
     Pseudo is Projector augmented-wave + core cor, Zval = 14.0
     Generated using &quot;atomic&quot; code by A. Dal Corso  v.6.3
     Shape of augmentation charge: PSQ
     Using radial grid of 1229 points,  6 beta functions with: 
                l(1) =   0
                l(2) =   0
                l(3) =   1
                l(4) =   1
                l(5) =   2
                l(6) =   2
     Q(r) pseudized with 0 coefficients 


     PseudoPot. # 2 for Se read from file:
     ./pseudo/Se.pbe-dn-kjpaw_psl.1.0.0.UPF
     MD5 check sum: ac240dd2bae32a30e0bf3a38df9c8785
     Pseudo is Projector augmented-wave + core cor, Zval = 16.0
     Generated using &quot;atomic&quot; code by A. Dal Corso  v.6.3
     Shape of augmentation charge: PSQ
     Using radial grid of 1211 points,  6 beta functions with: 
                l(1) =   0
                l(2) =   0
                l(3) =   1
                l(4) =   1
                l(5) =   2
                l(6) =   2
     Q(r) pseudized with 0 coefficients 


     atomic species   valence    mass     pseudopotential
     Mo               14.00    95.96000     Mo( 1.00)
     Se               16.00    78.96000     Se( 1.00)

      6 Sym. Ops. (no inversion) found



   Cartesian axes

     site n.     atom                  positions (alat units)
         1        Se     tau(   1) = (  -0.0000005   0.5773506   6.1238532  )
         2        Mo     tau(   2) = (   0.0000000   0.0000000   6.6502752  )
         3        Se     tau(   3) = (   0.5000005   0.2886748   7.1775994  )
         4        Se     tau(   4) = (  -0.0000005   0.5773506   9.3967431  )
         5        Mo     tau(   5) = (   0.5000005   0.2886748   9.9239297  )
         6        Se     tau(   6) = (   0.0000000   0.0000000  10.4510703  )

     number of k points=    30  Methfessel-Paxton smearing, width (Ry)=  0.0200
                       cart. coord. in units 2pi/alat
        k(    1) = (   0.0000000   0.0000000   0.0000000), wk =   0.0078125
        k(    2) = (   0.0000000   0.0721688   0.0000000), wk =   0.0468750
        k(    3) = (   0.0000000   0.1443376   0.0000000), wk =   0.0468750
        k(    4) = (   0.0000000   0.2165064   0.0000000), wk =   0.0468750
        k(    5) = (   0.0000000   0.2886751   0.0000000), wk =   0.0468750
        k(    6) = (   0.0000000   0.3608439   0.0000000), wk =   0.0468750
        k(    7) = (   0.0000000   0.4330127   0.0000000), wk =   0.0468750
        k(    8) = (   0.0000000   0.5051815   0.0000000), wk =   0.0468750
        k(    9) = (   0.0000000  -0.5773503   0.0000000), wk =   0.0234375
        k(   10) = (   0.0625000   0.1082532   0.0000000), wk =   0.0468750
        k(   11) = (   0.0625000   0.1804220   0.0000000), wk =   0.0937500
        k(   12) = (   0.0625000   0.2525907   0.0000000), wk =   0.0937500
        k(   13) = (   0.0625000   0.3247595   0.0000000), wk =   0.0937500
        k(   14) = (   0.0625000   0.3969283   0.0000000), wk =   0.0937500
        k(   15) = (   0.0625000   0.4690971   0.0000000), wk =   0.0937500
        k(   16) = (   0.0625000   0.5412659   0.0000000), wk =   0.0937500
        k(   17) = (   0.1250000   0.2165064   0.0000000), wk =   0.0468750
        k(   18) = (   0.1250000   0.2886751   0.0000000), wk =   0.0937500
        k(   19) = (   0.1250000   0.3608439   0.0000000), wk =   0.0937500
        k(   20) = (   0.1250000   0.4330127   0.0000000), wk =   0.0937500
        k(   21) = (   0.1250000   0.5051815   0.0000000), wk =   0.0937500
        k(   22) = (   0.1250000   0.5773503   0.0000000), wk =   0.0468750
        k(   23) = (   0.1875000   0.3247595   0.0000000), wk =   0.0468750
        k(   24) = (   0.1875000   0.3969283   0.0000000), wk =   0.0937500
        k(   25) = (   0.1875000   0.4690971   0.0000000), wk =   0.0937500
        k(   26) = (   0.1875000   0.5412659   0.0000000), wk =   0.0937500
        k(   27) = (   0.2500000   0.4330127   0.0000000), wk =   0.0468750
        k(   28) = (   0.2500000   0.5051815   0.0000000), wk =   0.0937500
        k(   29) = (   0.2500000   0.5773503   0.0000000), wk =   0.0468750
        k(   30) = (   0.3125000   0.5412659   0.0000000), wk =   0.0468750

     Dense  grid:   853823 G-vectors     FFT dimensions: (  50,  50, 768)

     Smooth grid:   302525 G-vectors     FFT dimensions: (  36,  36, 540)

     Estimated max dynamical RAM per process >     171.88 MB

     Estimated total dynamical RAM >       4.03 GB

     Initial potential from superposition of free atoms

     starting charge      91.9979, renormalised to      92.0000

     negative rho (up, down):  1.704E-04 0.000E+00


     %%%%%%%%%%%%%%%%%%%%%%%%%%%%%%%%%%%%%%%%%%%%%%%%%%%%%%%%%%%%%%%%%%%%%%%%
     %                                                                      %
     % You are using vdW-DF, which was implemented by the Thonhauser group. %
     % Please cite the following two papers that made this development      %
     % possible and the two reviews that describe the various versions:     %
     %                                                                      %
     %   T. Thonhauser et al., PRL 115, 136402 (2015).                      %
     %   T. Thonhauser et al., PRB 76, 125112 (2007).                       %
     %   K. Berland et al., Rep. Prog. Phys. 78, 066501 (2015).             %
     %   D.C. Langreth et al., J. Phys.: Condens. Matter 21, 084203 (2009). %
     %                                                                      %
     % If you are calculating stress with vdW-DF, please also cite:         %
     %                                                                      %
     %   R. Sabatini et al., J. Phys.: Condens. Matter 24, 424209 (2012).   %
     %                                                                      %
     %%%%%%%%%%%%%%%%%%%%%%%%%%%%%%%%%%%%%%%%%%%%%%%%%%%%%%%%%%%%%%%%%%%%%%%%

     %%%%%%%%%%%%%%%%%%%%%%%%%%%%%%%%%%%%%%%%%%%%%%%%%%%%%%%%%%%%%%%%%%%%%%%%
     %                                                                      %
     %  vdW-DF NEWS:                                                        %
     %                                                                      %
     %  * vdW-DF3 is now available. DOI: 10.1021/acs.jctc.0c00471           %
     %    use with input_dft = 'vdW-DF3-opt1' or 'vdW-DF3-opt2'             %
     %                                                                      %
     %  * Unscreened and range-separated hybrid vdW-DF-cx functionals       %
     %    DOI: 10.1063/1.4986522 and 10.1088/1361-648X/ac2ad2               %
     %    use with input_dft = 'vdW-DF-cx0'    and 'vdW-DF-ahcx'            %
     %  * Unscreened and range-separated hybrid vdW-DF2-b86r functionals    %
     %    DOI: 10.1063/1.4986522 and DOI: 10.1103/PhysRevX.12.041003        %
     %    use with input_dft = 'vdW-DF2-br0' and 'vdW-DF2-ahbr'             %
     %                                                                      %
     %%%%%%%%%%%%%%%%%%%%%%%%%%%%%%%%%%%%%%%%%%%%%%%%%%%%%%%%%%%%%%%%%%%%%%%%


     Starting wfcs are   56 randomized atomic wfcs
     Checking if some PAW data can be deallocated... 

     total cpu time spent up to now is       12.2 secs

     per-process dynamical memory:    79.7 Mb

     Self-consistent Calculation

     iteration #  1     ecut=    80.00 Ry     beta= 0.30
     Davidson diagonalization with overlap
     ethr =  1.00E-02,  avg # of iterations =  4.6

     Threshold (ethr) on eigenvalues was too large:
     Diagonalizing with lowered threshold

     Davidson diagonalization with overlap
     ethr =  4.49E-04,  avg # of iterations =  2.6

     negative rho (up, down):  4.320E-05 0.000E+00

     total cpu time spent up to now is       51.7 secs

     total energy              =   -2326.96306118 Ry
     estimated scf accuracy    <       0.46036160 Ry

     iteration #  2     ecut=    80.00 Ry     beta= 0.30
     Davidson diagonalization with overlap
     ethr =  5.00E-04,  avg # of iterations =  1.4

     negative rho (up, down):  2.016E-05 0.000E+00

     total cpu time spent up to now is       67.6 secs

     total energy              =   -2326.91639071 Ry
     estimated scf accuracy    <       0.24281772 Ry

     iteration #  3     ecut=    80.00 Ry     beta= 0.30
     Davidson diagonalization with overlap
     ethr =  2.64E-04,  avg # of iterations =  3.2

     negative rho (up, down):  9.476E-06 0.000E+00

     total cpu time spent up to now is       86.2 secs

     total energy              =   -2326.92337514 Ry
     estimated scf accuracy    <       0.03135134 Ry

     iteration #  4     ecut=    80.00 Ry     beta= 0.30
     Davidson diagonalization with overlap
     ethr =  3.41E-05,  avg # of iterations =  7.9

     negative rho (up, down):  4.355E-06 0.000E+00

     total cpu time spent up to now is      107.5 secs

     total energy              =   -2326.92347780 Ry
     estimated scf accuracy    <       0.00974054 Ry

     iteration #  5     ecut=    80.00 Ry     beta= 0.30
     Davidson diagonalization with overlap
     c_bands:  1 eigenvalues not converged
     ethr =  1.06E-05,  avg # of iterations =  4.1

     negative rho (up, down):  6.789E-07 0.000E+00

     total cpu time spent up to now is      127.7 secs

     total energy              =   -2326.92270047 Ry
     estimated scf accuracy    <       0.00384884 Ry

     iteration #  6     ecut=    80.00 Ry     beta= 0.30
     Davidson diagonalization with overlap
     c_bands:  1 eigenvalues not converged
     c_bands:  1 eigenvalues not converged
     ethr =  4.18E-06,  avg # of iterations =  7.1

     negative rho (up, down):  3.620E-07 0.000E+00

     total cpu time spent up to now is      149.7 secs

     total energy              =   -2326.92271716 Ry
     estimated scf accuracy    <       0.00133079 Ry

     iteration #  7     ecut=    80.00 Ry     beta= 0.30
     Davidson diagonalization with overlap
     ethr =  1.45E-06,  avg # of iterations =  3.7

     negative rho (up, down):  2.986E-07 0.000E+00

     total cpu time spent up to now is      168.2 secs

     total energy              =   -2326.92255973 Ry
     estimated scf accuracy    <       0.00118577 Ry

     iteration #  8     ecut=    80.00 Ry     beta= 0.30
     Davidson diagonalization with overlap
     ethr =  1.29E-06,  avg # of iterations =  2.1

     negative rho (up, down):  1.302E-07 0.000E+00

     total cpu time spent up to now is      186.0 secs

     total energy              =   -2326.92251617 Ry
     estimated scf accuracy    <       0.00088157 Ry

     iteration #  9     ecut=    80.00 Ry     beta= 0.30
     Davidson diagonalization with overlap
     ethr =  9.58E-07,  avg # of iterations =  2.8

     negative rho (up, down):  1.819E-03 0.000E+00

     total cpu time spent up to now is      203.8 secs

     total energy              =   -2326.92251744 Ry
     estimated scf accuracy    <       0.00068318 Ry

     iteration # 10     ecut=    80.00 Ry     beta= 0.30
     Davidson diagonalization with overlap
     ethr =  7.43E-07,  avg # of iterations =  5.7

     negative rho (up, down):  4.192E-03 0.000E+00

     total cpu time spent up to now is      222.9 secs

     total energy              =   -2326.92247447 Ry
     estimated scf accuracy    <       0.00054563 Ry

     iteration # 11     ecut=    80.00 Ry     beta= 0.30
     Davidson diagonalization with overlap
     ethr =  5.93E-07,  avg # of iterations =  4.5

     negative rho (up, down):  6.709E-03 0.000E+00

     total cpu time spent up to now is      241.2 secs

     total energy              =   -2326.92239015 Ry
     estimated scf accuracy    <       0.00037770 Ry

     iteration # 12     ecut=    80.00 Ry     beta= 0.30
     Davidson diagonalization with overlap
     c_bands:  1 eigenvalues not converged
     ethr =  4.11E-07,  avg # of iterations =  7.5

     negative rho (up, down):  6.656E-03 0.000E+00

     total cpu time spent up to now is      260.8 secs

     total energy              =   -2326.92240045 Ry
     estimated scf accuracy    <       0.00020280 Ry

     iteration # 13     ecut=    80.00 Ry     beta= 0.30
     Davidson diagonalization with overlap
     ethr =  2.20E-07,  avg # of iterations =  1.0

     negative rho (up, down):  2.947E-03 0.000E+00

     total cpu time spent up to now is      276.3 secs

     total energy              =   -2326.92236438 Ry
     estimated scf accuracy    <       0.00015397 Ry

     iteration # 14     ecut=    80.00 Ry     beta= 0.30
     Davidson diagonalization with overlap
     ethr =  1.67E-07,  avg # of iterations =  1.8

     negative rho (up, down):  2.535E-03 0.000E+00

     total cpu time spent up to now is      293.6 secs

     total energy              =   -2326.92236324 Ry
     estimated scf accuracy    <       0.00007940 Ry

     iteration # 15     ecut=    80.00 Ry     beta= 0.30
     Davidson diagonalization with overlap
     ethr =  8.63E-08,  avg # of iterations =  1.1

     negative rho (up, down):  8.324E-04 0.000E+00

     total cpu time spent up to now is      309.1 secs

     total energy              =   -2326.92240520 Ry
     estimated scf accuracy    <       0.00006362 Ry

     iteration # 16     ecut=    80.00 Ry     beta= 0.30
     Davidson diagonalization with overlap
     ethr =  6.92E-08,  avg # of iterations =  2.1

     negative rho (up, down):  8.257E-04 0.000E+00

     total cpu time spent up to now is      327.6 secs

     total energy              =   -2326.92240751 Ry
     estimated scf accuracy    <       0.00002944 Ry

     iteration # 17     ecut=    80.00 Ry     beta= 0.30
     Davidson diagonalization with overlap
     ethr =  3.20E-08,  avg # of iterations =  2.0

     negative rho (up, down):  7.424E-04 0.000E+00

     total cpu time spent up to now is      346.5 secs

     total energy              =   -2326.92241367 Ry
     estimated scf accuracy    <       0.00001013 Ry

     iteration # 18     ecut=    80.00 Ry     beta= 0.30
     Davidson diagonalization with overlap
     ethr =  1.10E-08,  avg # of iterations =  1.7

     negative rho (up, down):  3.280E-04 0.000E+00

     total cpu time spent up to now is      363.7 secs

     total energy              =   -2326.92241435 Ry
     estimated scf accuracy    <       0.00000406 Ry

     iteration # 19     ecut=    80.00 Ry     beta= 0.30
     Davidson diagonalization with overlap
     ethr =  4.41E-09,  avg # of iterations =  2.1

     negative rho (up, down):  2.054E-04 0.000E+00

     total cpu time spent up to now is      382.6 secs

     total energy              =   -2326.92241699 Ry
     estimated scf accuracy    <       0.00000155 Ry

     iteration # 20     ecut=    80.00 Ry     beta= 0.30
     Davidson diagonalization with overlap
     ethr =  1.68E-09,  avg # of iterations =  2.2

     negative rho (up, down):  2.211E-04 0.000E+00

     total cpu time spent up to now is      404.2 secs

     total energy              =   -2326.92241749 Ry
     estimated scf accuracy    <       0.00000028 Ry

     iteration # 21     ecut=    80.00 Ry     beta= 0.30
     Davidson diagonalization with overlap
     ethr =  3.08E-10,  avg # of iterations =  2.1

     negative rho (up, down):  2.173E-04 0.000E+00

     total cpu time spent up to now is      424.5 secs

     total energy              =   -2326.92241802 Ry
     estimated scf accuracy    <       0.00000004 Ry

     iteration # 22     ecut=    80.00 Ry     beta= 0.30
     Davidson diagonalization with overlap
     ethr =  4.12E-11,  avg # of iterations =  2.5

     negative rho (up, down):  1.983E-04 0.000E+00

     total cpu time spent up to now is      443.1 secs

     total energy              =   -2326.92241813 Ry
     estimated scf accuracy    <       0.00000002 Ry

     iteration # 23     ecut=    80.00 Ry     beta= 0.30
     Davidson diagonalization with overlap
     ethr =  1.82E-11,  avg # of iterations =  2.7

     negative rho (up, down):  2.011E-04 0.000E+00

     total cpu time spent up to now is      462.1 secs

     End of self-consistent calculation

          k = 0.0000 0.0000 0.0000 ( 37787 PWs)   bands (ev):

   -61.8978 -61.8970 -48.2933 -48.2933 -48.2924 -48.2924 -48.2918 -48.2918
   -48.2911 -48.2911 -48.2478 -48.2478 -48.2468 -48.2468 -48.2464 -48.2464
   -48.2456 -48.2455 -48.2292 -48.2280 -48.2277 -48.2269 -36.0163 -36.0152
   -35.9009 -35.9009 -35.8996 -35.8996 -15.2956 -15.2922 -14.4774 -14.4759
    -6.4389  -6.4355  -3.3623  -3.3623  -3.3562  -3.3562  -3.3443  -3.3321
    -1.5990  -1.5851  -1.0660  -1.0660  -1.0631  -1.0631   0.2276   0.2276
     0.2304   0.2304   2.7512   2.9461   2.9461   2.9482   2.9482

          k = 0.0000 0.0722 0.0000 ( 37755 PWs)   bands (ev):

   -61.8969 -61.8960 -48.2933 -48.2931 -48.2924 -48.2922 -48.2918 -48.2916
   -48.2910 -48.2909 -48.2479 -48.2478 -48.2469 -48.2468 -48.2464 -48.2464
   -48.2456 -48.2456 -48.2291 -48.2279 -48.2276 -48.2268 -36.0140 -36.0130
   -35.9116 -35.9103 -35.9034 -35.9021 -15.2388 -15.2354 -14.4479 -14.4463
    -6.3612  -6.3578  -3.8357  -3.8302  -3.3303  -3.3242  -2.9382  -2.9300
    -1.6356  -1.6246  -1.2560  -1.2527  -1.2130  -1.2099   0.1179   0.1230
     0.3406   0.3430   2.5880   2.6331   2.8948   2.8975   2.8995

          k = 0.0000 0.1443 0.0000 ( 37697 PWs)   bands (ev):

   -61.8941 -61.8933 -48.2932 -48.2925 -48.2924 -48.2917 -48.2917 -48.2910
   -48.2910 -48.2903 -48.2480 -48.2479 -48.2470 -48.2469 -48.2466 -48.2465
   -48.2457 -48.2456 -48.2288 -48.2277 -48.2274 -48.2265 -36.0077 -36.0066
   -35.9417 -35.9404 -35.9103 -35.9090 -15.0725 -15.0691 -14.3617 -14.3600
    -6.1359  -6.1325  -4.3210  -4.3159  -3.2550  -3.2489  -2.7184  -2.7113
    -2.0796  -2.0762  -1.5004  -1.4970  -1.4618  -1.4534  -0.0039   0.0059
     0.5311   0.5330   2.0061   2.0439   2.7977   2.7996   3.1434

          k = 0.0000 0.2165 0.0000 ( 37653 PWs)   bands (ev):

   -61.8900 -61.8891 -48.2932 -48.2924 -48.2917 -48.2917 -48.2910 -48.2909
   -48.2902 -48.2895 -48.2483 -48.2480 -48.2472 -48.2470 -48.2469 -48.2466
   -48.2459 -48.2457 -48.2284 -48.2273 -48.2270 -48.2261 -35.9984 -35.9974
   -35.9861 -35.9848 -35.9207 -35.9194 -14.8095 -14.8062 -14.2254 -14.2234
    -5.7952  -5.7918  -4.7501  -4.7453  -3.2593  -3.2562  -3.2033  -3.1974
    -2.4392  -2.4330  -1.7241  -1.7204  -1.5611  -1.5555  -0.0361  -0.0247
     0.6375   0.6388   1.6424   1.6861   2.7323   2.7340   3.5174

          k = 0.0000 0.2887 0.0000 ( 37721 PWs)   bands (ev):

   -61.8852 -61.8843 -48.2932 -48.2923 -48.2917 -48.2910 -48.2908 -48.2900
   -48.2893 -48.2886 -48.2487 -48.2481 -48.2474 -48.2473 -48.2470 -48.2467
   -48.2462 -48.2458 -48.2280 -48.2268 -48.2265 -48.2257 -36.0392 -36.0378
   -35.9865 -35.9855 -35.9329 -35.9315 -14.4763 -14.4731 -14.0475 -14.0453
    -5.4837  -5.4800  -4.9899  -4.9857  -4.2813  -4.2779  -3.2577  -3.2521
    -2.6235  -2.6196  -1.8123  -1.8097  -1.7677  -1.7637   0.0454   0.0565
     0.6426   0.6436   1.7452   1.7961   2.7335   2.7353   3.9959

          k = 0.0000 0.3608 0.0000 ( 37749 PWs)   bands (ev):

   -61.8803 -61.8794 -48.2932 -48.2923 -48.2917 -48.2909 -48.2899 -48.2891
   -48.2884 -48.2877 -48.2491 -48.2483 -48.2477 -48.2476 -48.2471 -48.2468
   -48.2464 -48.2458 -48.2275 -48.2264 -48.2261 -48.2252 -36.0912 -36.0897
   -35.9752 -35.9742 -35.9450 -35.9437 -14.1280 -14.1248 -13.8281 -13.8256
    -5.6005  -5.5962  -5.2386  -5.2355  -4.7257  -4.7223  -3.4063  -3.4009
    -2.9825  -2.9805  -2.0771  -2.0754  -1.6624  -1.6584   0.3063   0.3150
     0.6194   0.6207   2.1632   2.2160   2.7700   2.7721   4.5507

          k = 0.0000 0.4330 0.0000 ( 37785 PWs)   bands (ev):

   -61.8762 -61.8753 -48.2932 -48.2922 -48.2917 -48.2908 -48.2892 -48.2883
   -48.2877 -48.2870 -48.2494 -48.2484 -48.2480 -48.2478 -48.2472 -48.2469
   -48.2465 -48.2459 -48.2271 -48.2260 -48.2257 -48.2248 -36.1349 -36.1335
   -35.9656 -35.9646 -35.9553 -35.9540 -13.8642 -13.8608 -13.5492 -13.5466
    -6.2009  -6.1971  -5.5784  -5.5753  -4.5358  -4.5332  -3.5655  -3.5602
    -3.2364  -3.2347  -2.2502  -2.2490  -1.5286  -1.5250   0.6339   0.6356
     0.6730   0.6786   2.6839   2.7286   2.8065   2.8088   4.9887

          k = 0.0000 0.5052 0.0000 ( 37822 PWs)   bands (ev):

   -61.8734 -61.8726 -48.2933 -48.2922 -48.2918 -48.2908 -48.2887 -48.2878
   -48.2872 -48.2865 -48.2496 -48.2485 -48.2482 -48.2479 -48.2472 -48.2470
   -48.2466 -48.2460 -48.2269 -48.2258 -48.2255 -48.2246 -36.1640 -36.1625
   -35.9622 -35.9608 -35.9591 -35.9581 -13.7190 -13.7154 -13.2873 -13.2848
    -6.7585  -6.7547  -5.5997  -5.5972  -4.7028  -4.7005  -3.6775  -3.6723
    -3.1161  -3.1143  -2.3781  -2.3774  -1.4414  -1.4381   0.6830   0.6852
     1.0159   1.0187   2.8290   2.8316   3.1424   3.1683   4.6499

          k = 0.0000-0.5774 0.0000 ( 37832 PWs)   bands (ev):

   -61.8725 -61.8716 -48.2933 -48.2922 -48.2918 -48.2908 -48.2885 -48.2877
   -48.2870 -48.2863 -48.2497 -48.2485 -48.2483 -48.2479 -48.2473 -48.2470
   -48.2466 -48.2460 -48.2268 -48.2257 -48.2254 -48.2245 -36.1741 -36.1727
   -35.9646 -35.9633 -35.9568 -35.9559 -13.6715 -13.6678 -13.1807 -13.1783
    -6.9637  -6.9599  -5.5701  -5.5681  -4.8457  -4.8430  -3.7172  -3.7119
    -2.9873  -2.9855  -2.4465  -2.4460  -1.4137  -1.4106   0.7105   0.7129
     1.1637   1.1647   2.8363   2.8389   3.3716   3.3816   4.3375

          k = 0.0625 0.1083 0.0000 ( 37709 PWs)   bands (ev):

   -61.8950 -61.8941 -48.2932 -48.2927 -48.2924 -48.2919 -48.2917 -48.2912
   -48.2910 -48.2905 -48.2480 -48.2479 -48.2470 -48.2469 -48.2465 -48.2464
   -48.2457 -48.2456 -48.2289 -48.2278 -48.2275 -48.2266 -36.0097 -36.0087
   -35.9316 -35.9303 -35.9084 -35.9071 -15.1272 -15.1238 -14.3901 -14.3884
    -6.2092  -6.2058  -4.1921  -4.1870  -3.2838  -3.2777  -2.7393  -2.7313
    -1.8790  -1.8757  -1.5008  -1.4972  -1.3857  -1.3784   0.0573   0.0661
     0.4309   0.4328   2.2317   2.2708   2.7504   2.7557   3.0703

          k = 0.0625 0.1804 0.0000 ( 37703 PWs)   bands (ev):

   -61.8916 -61.8907 -48.2932 -48.2923 -48.2921 -48.2917 -48.2912 -48.2910
   -48.2906 -48.2899 -48.2482 -48.2480 -48.2471 -48.2469 -48.2468 -48.2465
   -48.2459 -48.2457 -48.2286 -48.2274 -48.2271 -48.2263 -36.0018 -36.0007
   -35.9682 -35.9669 -35.9178 -35.9165 -14.9121 -14.9088 -14.2790 -14.2772
    -5.9212  -5.9178  -4.6055  -4.6006  -3.2782  -3.2723  -2.8133  -2.8095
    -2.4558  -2.4523  -1.7559  -1.7519  -1.4177  -1.4106   0.0556   0.0659
     0.4307   0.4330   1.9127   1.9536   2.5774   2.5820   3.3807

          k = 0.0625 0.2526 0.0000 ( 37702 PWs)   bands (ev):

   -61.8871 -61.8862 -48.2931 -48.2923 -48.2916 -48.2913 -48.2909 -48.2904
   -48.2898 -48.2890 -48.2486 -48.2481 -48.2473 -48.2471 -48.2470 -48.2466
   -48.2460 -48.2458 -48.2281 -48.2270 -48.2267 -48.2258 -36.0160 -36.0146
   -35.9911 -35.9901 -35.9302 -35.9289 -14.6120 -14.6088 -14.1229 -14.1208
    -5.5537  -5.5502  -4.9496  -4.9449  -3.8371  -3.8334  -3.2239  -3.2191
    -2.6018  -2.5984  -1.9656  -1.9625  -1.4471  -1.4430  -0.0076   0.0013
     0.5086   0.5141   1.8062   1.8466   2.5451   2.5556   3.8057

          k = 0.0625 0.3248 0.0000 ( 37734 PWs)   bands (ev):

   -61.8823 -61.8814 -48.2931 -48.2922 -48.2916 -48.2909 -48.2904 -48.2895
   -48.2889 -48.2882 -48.2489 -48.2482 -48.2475 -48.2475 -48.2471 -48.2468
   -48.2463 -48.2458 -48.2277 -48.2266 -48.2263 -48.2254 -36.0669 -36.0655
   -35.9799 -35.9789 -35.9436 -35.9423 -14.2636 -14.2605 -13.9294 -13.9270
    -5.4466  -5.4424  -4.9256  -4.9224  -4.7814  -4.7777  -3.4633  -3.4589
    -2.7269  -2.7246  -2.2803  -2.2780  -1.4357  -1.4329   0.0438   0.0513
     0.6581   0.6621   1.9451   1.9817   2.6331   2.6522   4.3265

          k = 0.0625 0.3969 0.0000 ( 37770 PWs)   bands (ev):

   -61.8778 -61.8769 -48.2931 -48.2921 -48.2916 -48.2908 -48.2896 -48.2887
   -48.2881 -48.2874 -48.2493 -48.2484 -48.2479 -48.2477 -48.2472 -48.2469
   -48.2464 -48.2459 -48.2273 -48.2262 -48.2258 -48.2250 -36.1136 -36.1122
   -35.9694 -35.9685 -35.9559 -35.9546 -13.9475 -13.9442 -13.6852 -13.6827
    -5.8167  -5.8127  -5.4824  -5.4790  -4.5600  -4.5571  -3.7084  -3.7043
    -2.9905  -2.9888  -2.4983  -2.4962  -1.3674  -1.3648   0.2424   0.2470
     0.8157   0.8186   2.2409   2.2625   2.7996   2.8293   4.8836

          k = 0.0625 0.4691 0.0000 ( 37798 PWs)   bands (ev):

   -61.8743 -61.8735 -48.2931 -48.2921 -48.2916 -48.2907 -48.2889 -48.2881
   -48.2874 -48.2867 -48.2495 -48.2485 -48.2481 -48.2478 -48.2473 -48.2470
   -48.2465 -48.2460 -48.2270 -48.2258 -48.2255 -48.2247 -36.1491 -36.1477
   -35.9657 -35.9644 -35.9610 -35.9600 -13.7500 -13.7466 -13.3996 -13.3970
    -6.4717  -6.4679  -5.5887  -5.5858  -4.5544  -4.5520  -3.8022  -3.7978
    -3.1054  -3.1034  -2.6036  -2.6020  -1.3272  -1.3249   0.4857   0.4879
     0.9982   1.0005   2.4752   2.4810   3.0571   3.0864   5.0635

          k = 0.0625 0.5413 0.0000 ( 37791 PWs)   bands (ev):

   -61.8725 -61.8716 -48.2931 -48.2920 -48.2916 -48.2907 -48.2886 -48.2878
   -48.2871 -48.2864 -48.2497 -48.2485 -48.2483 -48.2479 -48.2473 -48.2471
   -48.2466 -48.2460 -48.2268 -48.2257 -48.2254 -48.2245 -36.1683 -36.1668
   -35.9706 -35.9693 -35.9569 -35.9559 -13.6568 -13.6532 -13.2044 -13.2019
    -6.8585  -6.8547  -5.5711  -5.5689  -4.7642  -4.7617  -3.8198  -3.8150
    -2.9922  -2.9902  -2.6759  -2.6745  -1.3283  -1.3261   0.6663   0.6684
     1.1284   1.1296   2.5748   2.5771   3.3093   3.3230   4.6389

          k = 0.1250 0.2165 0.0000 ( 37731 PWs)   bands (ev):

   -61.8878 -61.8869 -48.2931 -48.2922 -48.2916 -48.2915 -48.2909 -48.2906
   -48.2900 -48.2892 -48.2485 -48.2480 -48.2473 -48.2471 -48.2470 -48.2466
   -48.2460 -48.2458 -48.2282 -48.2271 -48.2268 -48.2259 -36.0061 -36.0047
   -35.9930 -35.9919 -35.9308 -35.9295 -14.6586 -14.6553 -14.1488 -14.1468
    -5.5844  -5.5810  -4.9172  -4.9124  -3.6955  -3.6910  -3.0113  -3.0082
    -2.8653  -2.8611  -1.9340  -1.9300  -1.3269  -1.3210   0.0495   0.0538
     0.3065   0.3175   2.1319   2.1793   2.1835   2.1892   3.7457

          k = 0.1250 0.2887 0.0000 ( 37723 PWs)   bands (ev):

   -61.8833 -61.8824 -48.2930 -48.2921 -48.2915 -48.2907 -48.2907 -48.2899
   -48.2892 -48.2885 -48.2488 -48.2482 -48.2475 -48.2474 -48.2472 -48.2467
   -48.2462 -48.2459 -48.2278 -48.2267 -48.2264 -48.2255 -36.0496 -36.0483
   -35.9826 -35.9816 -35.9468 -35.9454 -14.3361 -14.3330 -13.9816 -13.9793
    -5.2705  -5.2665  -5.0815  -5.0777  -4.4633  -4.4595  -3.4632  -3.4601
    -2.9550  -2.9513  -2.2011  -2.1989  -1.1991  -1.1949  -0.1641  -0.1582
     0.6006   0.6092   1.8680   1.8758   2.4443   2.4942   4.2163

          k = 0.1250 0.3608 0.0000 ( 37761 PWs)   bands (ev):

   -61.8788 -61.8780 -48.2929 -48.2919 -48.2914 -48.2906 -48.2900 -48.2891
   -48.2885 -48.2878 -48.2492 -48.2483 -48.2477 -48.2476 -48.2473 -48.2469
   -48.2463 -48.2460 -48.2274 -48.2263 -48.2260 -48.2251 -36.0926 -36.0911
   -35.9728 -35.9718 -35.9625 -35.9612 -13.9960 -13.9928 -13.7807 -13.7781
    -5.4735  -5.4691  -5.2632  -5.2597  -4.6672  -4.6640  -3.8512  -3.8479
    -3.0543  -3.0512  -2.6309  -2.6294  -1.0673  -1.0645  -0.1284  -0.1234
     0.8854   0.8901   1.7863   1.7941   2.7559   2.8029   4.7649

          k = 0.1250 0.4330 0.0000 ( 37768 PWs)   bands (ev):

   -61.8750 -61.8741 -48.2928 -48.2918 -48.2913 -48.2904 -48.2894 -48.2885
   -48.2879 -48.2872 -48.2494 -48.2485 -48.2480 -48.2478 -48.2473 -48.2471
   -48.2465 -48.2461 -48.2270 -48.2259 -48.2256 -48.2247 -36.1286 -36.1271
   -35.9778 -35.9765 -35.9625 -35.9616 -13.7460 -13.7427 -13.5175 -13.5148
    -6.0631  -6.0593  -5.5222  -5.5187  -4.3964  -4.3937  -4.0784  -4.0748
    -3.1658  -3.1632  -2.9795  -2.9777  -1.0346  -1.0330   0.1161   0.1195
     1.0773   1.0795   1.8974   1.9032   3.0438   3.0779   5.2588

          k = 0.1250 0.5052 0.0000 ( 37794 PWs)   bands (ev):

   -61.8725 -61.8716 -48.2927 -48.2917 -48.2913 -48.2903 -48.2889 -48.2881
   -48.2875 -48.2868 -48.2496 -48.2486 -48.2482 -48.2478 -48.2474 -48.2472
   -48.2465 -48.2461 -48.2268 -48.2257 -48.2254 -48.2245 -36.1525 -36.1510
   -35.9869 -35.9856 -35.9569 -35.9559 -13.6142 -13.6107 -13.2686 -13.2659
    -6.5664  -6.5626  -5.5554  -5.5525  -4.5690  -4.5664  -4.0301  -4.0263
    -3.2471  -3.2448  -3.0434  -3.0414  -1.0916  -1.0905   0.4550   0.4570
     1.1271   1.1285   2.0657   2.0690   3.2417   3.2582   5.2071

          k = 0.1250 0.5774 0.0000 ( 37780 PWs)   bands (ev):

   -61.8716 -61.8707 -48.2927 -48.2916 -48.2913 -48.2903 -48.2888 -48.2880
   -48.2873 -48.2866 -48.2496 -48.2487 -48.2482 -48.2479 -48.2474 -48.2473
   -48.2465 -48.2461 -48.2267 -48.2256 -48.2253 -48.2244 -36.1608 -36.1594
   -35.9902 -35.9888 -35.9548 -35.9539 -13.5705 -13.5669 -13.1692 -13.1666
    -6.7499  -6.7462  -5.5474  -5.5449  -4.6836  -4.6809  -4.0265  -4.0226
    -3.2763  -3.2742  -2.9980  -2.9960  -1.1306  -1.1296   0.6570   0.6587
     1.0787   1.0797   2.1497   2.1515   3.3114   3.3191   5.0045

          k = 0.1875 0.3248 0.0000 ( 37725 PWs)   bands (ev):

   -61.8792 -61.8783 -48.2927 -48.2918 -48.2912 -48.2904 -48.2902 -48.2893
   -48.2887 -48.2880 -48.2491 -48.2483 -48.2477 -48.2476 -48.2473 -48.2468
   -48.2463 -48.2460 -48.2274 -48.2263 -48.2260 -48.2251 -36.0830 -36.0816
   -35.9749 -35.9738 -35.9661 -35.9648 -14.0113 -14.0082 -13.8153 -13.8127
    -5.3412  -5.3367  -5.0945  -5.0908  -4.7562  -4.7531  -3.8542  -3.8516
    -3.3351  -3.3312  -2.5115  -2.5103  -0.8995  -0.8958  -0.3081  -0.3032
     0.8828   0.8890   1.6020   1.6050   2.7418   2.7940   4.7199

          k = 0.1875 0.3969 0.0000 ( 37753 PWs)   bands (ev):

   -61.8754 -61.8745 -48.2925 -48.2915 -48.2910 -48.2901 -48.2897 -48.2889
   -48.2882 -48.2875 -48.2493 -48.2485 -48.2479 -48.2478 -48.2474 -48.2470
   -48.2465 -48.2461 -48.2271 -48.2259 -48.2256 -48.2248 -36.1118 -36.1103
   -35.9901 -35.9888 -35.9634 -35.9624 -13.7084 -13.7052 -13.6179 -13.6151
    -5.6942  -5.6905  -5.4449  -5.4409  -4.3555  -4.3526  -4.2061  -4.2034
    -3.6608  -3.6573  -2.9103  -2.9090  -0.6924  -0.6902  -0.2393  -0.2359
     1.1061   1.1091   1.5206   1.5249   3.0442   3.0812   5.2659

          k = 0.1875 0.4691 0.0000 ( 37759 PWs)   bands (ev):

   -61.8725 -61.8716 -48.2923 -48.2912 -48.2908 -48.2898 -48.2894 -48.2885
   -48.2879 -48.2872 -48.2495 -48.2487 -48.2480 -48.2479 -48.2474 -48.2472
   -48.2466 -48.2461 -48.2268 -48.2257 -48.2254 -48.2245 -36.1327 -36.1312
   -36.0072 -36.0058 -35.9569 -35.9559 -13.5480 -13.5446 -13.3556 -13.3528
    -6.1785  -6.1748  -5.5122  -5.5086  -4.4281  -4.4251  -4.1194  -4.1165
    -3.8863  -3.8835  -3.1803  -3.1787  -0.7435  -0.7424   0.1034   0.1054
     1.1473   1.1487   1.6716   1.6760   3.2207   3.2378   5.5888

          k = 0.1875 0.5413 0.0000 ( 37793 PWs)   bands (ev):

   -61.8709 -61.8700 -48.2921 -48.2911 -48.2907 -48.2897 -48.2892 -48.2884
   -48.2877 -48.2870 -48.2495 -48.2488 -48.2481 -48.2480 -48.2474 -48.2474
   -48.2466 -48.2461 -48.2267 -48.2255 -48.2252 -48.2244 -36.1436 -36.1422
   -36.0168 -36.0155 -35.9533 -35.9523 -13.4704 -13.4669 -13.1861 -13.1833
    -6.4558  -6.4521  -5.5407  -5.5375  -4.5216  -4.5185  -4.1621  -4.1591
    -3.9610  -3.9587  -3.2014  -3.1996  -0.8312  -0.8306   0.4708   0.4719
     0.9999   1.0012   1.8835   1.8861   3.2229   3.2291   5.5866

          k = 0.2500 0.4330 0.0000 ( 37711 PWs)   bands (ev):

   -61.8725 -61.8716 -48.2920 -48.2910 -48.2905 -48.2896 -48.2896 -48.2887
   -48.2881 -48.2874 -48.2494 -48.2486 -48.2480 -48.2479 -48.2474 -48.2472
   -48.2466 -48.2461 -48.2268 -48.2257 -48.2254 -48.2245 -36.1222 -36.1208
   -36.0178 -36.0164 -35.9569 -35.9559 -13.4861 -13.4829 -13.4260 -13.4231
    -5.9580  -5.9543  -5.4807  -5.4767  -4.4096  -4.4071  -4.2496  -4.2464
    -4.0450  -4.0421  -3.2760  -3.2747  -0.3333  -0.3311  -0.3117  -0.3103
     1.1425   1.1441   1.5464   1.5512   3.2193   3.2362   5.7188

          k = 0.2500 0.5052 0.0000 ( 37776 PWs)   bands (ev):

   -61.8705 -61.8697 -48.2916 -48.2906 -48.2901 -48.2896 -48.2892 -48.2888
   -48.2881 -48.2874 -48.2494 -48.2488 -48.2481 -48.2480 -48.2474 -48.2474
   -48.2468 -48.2461 -48.2266 -48.2255 -48.2252 -48.2243 -36.1248 -36.1234
   -36.0409 -36.0395 -35.9525 -35.9515 -13.3765 -13.3731 -13.2390 -13.2360
    -6.1057  -6.1021  -5.5324  -5.5286  -4.6691  -4.6656  -4.3867  -4.3846
    -3.9711  -3.9688  -3.5138  -3.5122  -0.4350  -0.4342   0.0609   0.0616
     0.9631   0.9645   1.8381   1.8428   3.1544   3.1585   5.7933

          k = 0.2500 0.5774 0.0000 ( 37791 PWs)   bands (ev):

   -61.8698 -61.8690 -48.2915 -48.2904 -48.2900 -48.2897 -48.2890 -48.2888
   -48.2882 -48.2875 -48.2494 -48.2489 -48.2481 -48.2480 -48.2475 -48.2474
   -48.2468 -48.2461 -48.2266 -48.2255 -48.2251 -48.2243 -36.1242 -36.1228
   -36.0504 -36.0490 -35.9509 -35.9500 -13.3378 -13.3344 -13.1691 -13.1661
    -6.1486  -6.1450  -5.5626  -5.5589  -4.8220  -4.8185  -4.2070  -4.2049
    -4.1873  -4.1854  -3.5146  -3.5128  -0.4857  -0.4852   0.3197   0.3198
     0.7559   0.7578   2.0584   2.0607   3.0180   3.0206   5.6786

          k = 0.3125 0.5413 0.0000 ( 37789 PWs)   bands (ev):

   -61.8695 -61.8686 -48.2910 -48.2902 -48.2898 -48.2895 -48.2892 -48.2887
   -48.2884 -48.2878 -48.2493 -48.2490 -48.2482 -48.2479 -48.2476 -48.2474
   -48.2470 -48.2461 -48.2265 -48.2254 -48.2251 -48.2243 -36.1067 -36.1053
   -36.0729 -36.0715 -35.9501 -35.9491 -13.2584 -13.2550 -13.1965 -13.1935
    -5.8444  -5.8408  -5.5723  -5.5684  -5.2616  -5.2582  -4.2201  -4.2182
    -3.8821  -3.8798  -3.8795  -3.8784  -0.1483  -0.1474   0.0291   0.0295
     0.6563   0.6584   2.2655   2.2694   2.8311   2.8334   5.6117

     the Fermi energy is    -0.2974 ev

!    total energy              =   -2326.92241807 Ry
     total all-electron energy =    -35628.670247 Ry
     estimated scf accuracy    <          2.6E-09 Ry
     smearing contrib. (-TS)   =       0.00089935 Ry
     internal energy E=F+TS    =   -2326.92331741 Ry

     The total energy is F=E-TS. E is the sum of the following terms:
     one-electron contribution =  -21172.13756030 Ry
     hartree contribution      =   10574.29350473 Ry
     xc contribution           =    -152.42405736 Ry
     ewald contribution        =    9433.85927720 Ry
     one-center paw contrib.   =   -1010.51448167 Ry

     convergence has been achieved in  23 iterations

     Writing all to output data dir ./tmp/cleave_021/mose2_cleave_021.save/ :
     XML data file, charge density, pseudopotentials, collected wavefunctions

     init_run     :     11.84s CPU     12.03s WALL (       1 calls)
     electrons    :    440.20s CPU    449.95s WALL (       1 calls)

     Called by init_run:
     wfcinit      :      5.44s CPU      5.47s WALL (       1 calls)
     potinit      :      5.75s CPU      5.79s WALL (       1 calls)
     hinit0       :      0.06s CPU      0.06s WALL (       1 calls)

     Called by electrons:
     c_bands      :    364.93s CPU    369.00s WALL (      24 calls)
     sum_band     :     49.82s CPU     52.60s WALL (      24 calls)
     v_of_rho     :     15.06s CPU     15.87s WALL (      24 calls)
     newd         :      8.98s CPU     11.11s WALL (      24 calls)
     PAW_pot      :      1.49s CPU      1.55s WALL (      24 calls)
     mix_rho      :      5.80s CPU      5.85s WALL (      24 calls)
     vdW_kernel   :      5.30s CPU      5.30s WALL (       1 calls)

     Called by c_bands:
     init_us_2    :      2.92s CPU      2.93s WALL (    1470 calls)
     cegterg      :    356.38s CPU    360.30s WALL (     720 calls)

     Called by *egterg:
     cdiaghg      :     10.17s CPU     10.19s WALL (    3042 calls)
     h_psi        :    154.07s CPU    155.22s WALL (    3102 calls)
     s_psi        :     30.18s CPU     30.22s WALL (    3102 calls)
     g_psi        :      0.51s CPU      0.51s WALL (    2352 calls)

     Called by h_psi:
     h_psi:calbec :     46.22s CPU     46.77s WALL (    3102 calls)
     vloc_psi     :     69.87s CPU     70.45s WALL (    3102 calls)
                                        0.00s GPU  (    3102 calls)
     add_vuspsi   :     37.42s CPU     37.45s WALL (    3102 calls)

     General routines
     calbec       :     66.77s CPU     67.62s WALL (    3822 calls)
     fft          :      5.90s CPU      6.01s WALL (    1511 calls)
     ffts         :      2.12s CPU      2.13s WALL (    2754 calls)
     fftw         :     78.74s CPU     79.39s WALL (  216470 calls)
     interpolate  :      0.11s CPU      0.11s WALL (      24 calls)

     Parallel routines

     PWSCF        :   7m32.62s CPU   7m42.74s WALL


   This run was terminated on:  11:36:31  20Jun2026            

=------------------------------------------------------------------------------=
   JOB DONE.
=------------------------------------------------------------------------------=
Note: The following floating-point exceptions are signalling: IEEE_UNDERFLOW_FLAG IEEE_DENORMAL
Note: The following floating-point exceptions are signalling: IEEE_UNDERFLOW_FLAG IEEE_DENORMAL
Note: The following floating-point exceptions are signalling: IEEE_UNDERFLOW_FLAG IEEE_DENORMAL
Note: The following floating-point exceptions are signalling: IEEE_UNDERFLOW_FLAG IEEE_DENORMAL
Note: The following floating-point exceptions are signalling: IEEE_UNDERFLOW_FLAG IEEE_DENORMAL
Note: The following floating-point exceptions are signalling: IEEE_UNDERFLOW_FLAG IEEE_DENORMAL
Note: The following floating-point exceptions are signalling: IEEE_UNDERFLOW_FLAG IEEE_DENORMAL
Note: The following floating-point exceptions are signalling: IEEE_UNDERFLOW_FLAG IEEE_DENORMAL
Note: The following floating-point exceptions are signalling: IEEE_UNDERFLOW_FLAG IEEE_DENORMAL
Note: The following floating-point exceptions are signalling: IEEE_UNDERFLOW_FLAG IEEE_DENORMAL
Note: The following floating-point exceptions are signalling: IEEE_UNDERFLOW_FLAG IEEE_DENORMAL
Note: The following floating-point exceptions are signalling: IEEE_UNDERFLOW_FLAG IEEE_DENORMAL
Note: The following floating-point exceptions are signalling: IEEE_UNDERFLOW_FLAG IEEE_DENORMAL
Note: The following floating-point exceptions are signalling: IEEE_UNDERFLOW_FLAG IEEE_DENORMAL
Note: The following floating-point exceptions are signalling: IEEE_UNDERFLOW_FLAG IEEE_DENORMAL
Note: The following floating-point exceptions are signalling: IEEE_UNDERFLOW_FLAG IEEE_DENORMAL
Note: The following floating-point exceptions are signalling: IEEE_UNDERFLOW_FLAG IEEE_DENORMAL
Note: The following floating-point exceptions are signalling: IEEE_UNDERFLOW_FLAG IEEE_DENORMAL
Note: The following floating-point exceptions are signalling: IEEE_UNDERFLOW_FLAG IEEE_DENORMAL
Note: The following floating-point exceptions are signalling: IEEE_UNDERFLOW_FLAG IEEE_DENORMAL
Note: The following floating-point exceptions are signalling: IEEE_UNDERFLOW_FLAG IEEE_DENORMAL
Note: The following floating-point exceptions are signalling: IEEE_UNDERFLOW_FLAG IEEE_DENORMAL
Note: The following floating-point exceptions are signalling: IEEE_UNDERFLOW_FLAG IEEE_DENORMAL
Note: The following floating-point exceptions are signalling: IEEE_UNDERFLOW_FLAG IEEE_DENORMAL
