
     Program PWSCF v.7.5 starts on 19Jun2026 at 22:38:32 

     This program is part of the open-source Quantum ESPRESSO suite
     for quantum simulation of materials; please cite
         "P. Giannozzi et al., J. Phys.:Condens. Matter 21 395502 (2009);
         "P. Giannozzi et al., J. Phys.:Condens. Matter 29 465901 (2017);
         "P. Giannozzi et al., J. Chem. Phys. 152 154105 (2020);
          URL http://www.quantum-espresso.org", 
     in publications or presentations arising from this work. More details at
     http://www.quantum-espresso.org/quote

     Parallel version (MPI), running on    24 processors

     MPI processes distributed on     1 nodes
     27925 MiB available memory on the printing compute node when the environment starts

     Waiting for input...
     Reading input from standard input

     Current dimensions of program PWSCF are:
     Max number of different atomic species (ntypx) = 10
     Max number of k-points (npk) =  40000
     Max angular momentum in pseudopotentials (lmaxx) =  4
     file Mo.pbe-spn-kjpaw_psl.1.0.0.UPF: wavefunction(s)  4S 4D renormalized
     file Se.pbe-dn-kjpaw_psl.1.0.0.UPF: wavefunction(s)  4S 4P 3D renormalized

     IMPORTANT: XC functional enforced from input :
     Exchange-correlation= VDW-DF2-B86R
                           (   1   4  26   0   2   0   0)
     Any further DFT definition will be discarded
     Please, verify this is what you really want


     R & G space division:  proc/nbgrp/npool/nimage =      24
     Subspace diagonalization in iterative solution of the eigenvalue problem:
     a serial algorithm will be used


     Parallelization info
     --------------------
     sticks:   dense  smooth     PW     G-vecs:    dense   smooth      PW
     Min          69      35     10                21319     7555    1156
     Max          70      36     11                21372     7592    1191
     Sum        1675     847    241               512251   181637   27905

     Using Slab Decomposition



     bravais-lattice index     =            4
     lattice parameter (alat)  =       6.1794  a.u.
     unit-cell volume          =    1874.7527 (a.u.)^3
     number of atoms/cell      =            6
     number of atomic types    =            2
     number of electrons       =        92.00
     number of Kohn-Sham states=           55
     kinetic-energy cutoff     =      80.0000  Ry
     charge density cutoff     =     640.0000  Ry
     scf convergence threshold =      1.0E-08
     mixing beta               =       0.3000
     number of iterations used =            8  local-TF  mixing
     energy convergence thresh.=      1.0E-04
     force convergence thresh. =      1.0E-03
     Exchange-correlation= VDW-DF2-B86R
                           (   1   4  26   0   2   0   0)
     nstep                     =           50


     celldm(1)=   6.179404  celldm(2)=   0.000000  celldm(3)=   9.174312
     celldm(4)=   0.000000  celldm(5)=   0.000000  celldm(6)=   0.000000

     crystal axes: (cart. coord. in units of alat)
               a(1) = (   1.000000   0.000000   0.000000 )  
               a(2) = (  -0.500000   0.866025   0.000000 )  
               a(3) = (   0.000000   0.000000   9.174312 )  

     reciprocal axes: (cart. coord. in units 2 pi/alat)
               b(1) = (  1.000000  0.577350 -0.000000 )  
               b(2) = (  0.000000  1.154701  0.000000 )  
               b(3) = (  0.000000 -0.000000  0.109000 )  


     PseudoPot. # 1 for Mo read from file:
     ./pseudo/Mo.pbe-spn-kjpaw_psl.1.0.0.UPF
     MD5 check sum: 4396e0c640fcce5c25f020efccf1ab12
     Pseudo is Projector augmented-wave + core cor, Zval = 14.0
     Generated using &quot;atomic&quot; code by A. Dal Corso  v.6.3
     Shape of augmentation charge: PSQ
     Using radial grid of 1229 points,  6 beta functions with: 
                l(1) =   0
                l(2) =   0
                l(3) =   1
                l(4) =   1
                l(5) =   2
                l(6) =   2
     Q(r) pseudized with 0 coefficients 


     PseudoPot. # 2 for Se read from file:
     ./pseudo/Se.pbe-dn-kjpaw_psl.1.0.0.UPF
     MD5 check sum: ac240dd2bae32a30e0bf3a38df9c8785
     Pseudo is Projector augmented-wave + core cor, Zval = 16.0
     Generated using &quot;atomic&quot; code by A. Dal Corso  v.6.3
     Shape of augmentation charge: PSQ
     Using radial grid of 1211 points,  6 beta functions with: 
                l(1) =   0
                l(2) =   0
                l(3) =   1
                l(4) =   1
                l(5) =   2
                l(6) =   2
     Q(r) pseudized with 0 coefficients 


     atomic species   valence    mass     pseudopotential
     Mo               14.00    95.96000     Mo( 1.00)
     Se               16.00    78.96000     Se( 1.00)

      6 Sym. Ops. (no inversion) found



   Cartesian axes

     site n.     atom                  positions (alat units)
         1        Se     tau(   1) = (  -0.0000005   0.5773506   0.6192661  )
         2        Mo     tau(   2) = (   0.0000000   0.0000000   1.1009174  )
         3        Se     tau(   3) = (   0.5000005   0.2886748   1.5825688  )
         4        Se     tau(   4) = (  -0.0000005   0.5773506   2.5302752  )
         5        Mo     tau(   5) = (   0.5000005   0.2886748   3.0119266  )
         6        Se     tau(   6) = (   0.0000000   0.0000000   3.4935780  )

     number of k points=    30  Methfessel-Paxton smearing, width (Ry)=  0.0200
                       cart. coord. in units 2pi/alat
        k(    1) = (   0.0000000   0.0000000   0.0000000), wk =   0.0078125
        k(    2) = (   0.0000000   0.0721688   0.0000000), wk =   0.0468750
        k(    3) = (   0.0000000   0.1443376   0.0000000), wk =   0.0468750
        k(    4) = (   0.0000000   0.2165064   0.0000000), wk =   0.0468750
        k(    5) = (   0.0000000   0.2886751   0.0000000), wk =   0.0468750
        k(    6) = (   0.0000000   0.3608439   0.0000000), wk =   0.0468750
        k(    7) = (   0.0000000   0.4330127   0.0000000), wk =   0.0468750
        k(    8) = (   0.0000000   0.5051815   0.0000000), wk =   0.0468750
        k(    9) = (   0.0000000  -0.5773503   0.0000000), wk =   0.0234375
        k(   10) = (   0.0625000   0.1082532   0.0000000), wk =   0.0468750
        k(   11) = (   0.0625000   0.1804220   0.0000000), wk =   0.0937500
        k(   12) = (   0.0625000   0.2525907   0.0000000), wk =   0.0937500
        k(   13) = (   0.0625000   0.3247595   0.0000000), wk =   0.0937500
        k(   14) = (   0.0625000   0.3969283   0.0000000), wk =   0.0937500
        k(   15) = (   0.0625000   0.4690971   0.0000000), wk =   0.0937500
        k(   16) = (   0.0625000   0.5412659   0.0000000), wk =   0.0937500
        k(   17) = (   0.1250000   0.2165064   0.0000000), wk =   0.0468750
        k(   18) = (   0.1250000   0.2886751   0.0000000), wk =   0.0937500
        k(   19) = (   0.1250000   0.3608439   0.0000000), wk =   0.0937500
        k(   20) = (   0.1250000   0.4330127   0.0000000), wk =   0.0937500
        k(   21) = (   0.1250000   0.5051815   0.0000000), wk =   0.0937500
        k(   22) = (   0.1250000   0.5773503   0.0000000), wk =   0.0468750
        k(   23) = (   0.1875000   0.3247595   0.0000000), wk =   0.0468750
        k(   24) = (   0.1875000   0.3969283   0.0000000), wk =   0.0937500
        k(   25) = (   0.1875000   0.4690971   0.0000000), wk =   0.0937500
        k(   26) = (   0.1875000   0.5412659   0.0000000), wk =   0.0937500
        k(   27) = (   0.2500000   0.4330127   0.0000000), wk =   0.0468750
        k(   28) = (   0.2500000   0.5051815   0.0000000), wk =   0.0937500
        k(   29) = (   0.2500000   0.5773503   0.0000000), wk =   0.0468750
        k(   30) = (   0.3125000   0.5412659   0.0000000), wk =   0.0468750

     Dense  grid:   512251 G-vectors     FFT dimensions: (  50,  50, 480)

     Smooth grid:   181637 G-vectors     FFT dimensions: (  36,  36, 324)

     Estimated max dynamical RAM per process >     107.08 MB

     Estimated total dynamical RAM >       2.51 GB

     Initial potential from superposition of free atoms

     starting charge      91.9979, renormalised to      92.0000

     negative rho (up, down):  1.128E-04 0.000E+00


     %%%%%%%%%%%%%%%%%%%%%%%%%%%%%%%%%%%%%%%%%%%%%%%%%%%%%%%%%%%%%%%%%%%%%%%%
     %                                                                      %
     % You are using vdW-DF, which was implemented by the Thonhauser group. %
     % Please cite the following two papers that made this development      %
     % possible and the two reviews that describe the various versions:     %
     %                                                                      %
     %   T. Thonhauser et al., PRL 115, 136402 (2015).                      %
     %   T. Thonhauser et al., PRB 76, 125112 (2007).                       %
     %   K. Berland et al., Rep. Prog. Phys. 78, 066501 (2015).             %
     %   D.C. Langreth et al., J. Phys.: Condens. Matter 21, 084203 (2009). %
     %                                                                      %
     % If you are calculating stress with vdW-DF, please also cite:         %
     %                                                                      %
     %   R. Sabatini et al., J. Phys.: Condens. Matter 24, 424209 (2012).   %
     %                                                                      %
     %%%%%%%%%%%%%%%%%%%%%%%%%%%%%%%%%%%%%%%%%%%%%%%%%%%%%%%%%%%%%%%%%%%%%%%%

     %%%%%%%%%%%%%%%%%%%%%%%%%%%%%%%%%%%%%%%%%%%%%%%%%%%%%%%%%%%%%%%%%%%%%%%%
     %                                                                      %
     %  vdW-DF NEWS:                                                        %
     %                                                                      %
     %  * vdW-DF3 is now available. DOI: 10.1021/acs.jctc.0c00471           %
     %    use with input_dft = 'vdW-DF3-opt1' or 'vdW-DF3-opt2'             %
     %                                                                      %
     %  * Unscreened and range-separated hybrid vdW-DF-cx functionals       %
     %    DOI: 10.1063/1.4986522 and 10.1088/1361-648X/ac2ad2               %
     %    use with input_dft = 'vdW-DF-cx0'    and 'vdW-DF-ahcx'            %
     %  * Unscreened and range-separated hybrid vdW-DF2-b86r functionals    %
     %    DOI: 10.1063/1.4986522 and DOI: 10.1103/PhysRevX.12.041003        %
     %    use with input_dft = 'vdW-DF2-br0' and 'vdW-DF2-ahbr'             %
     %                                                                      %
     %%%%%%%%%%%%%%%%%%%%%%%%%%%%%%%%%%%%%%%%%%%%%%%%%%%%%%%%%%%%%%%%%%%%%%%%


     Starting wfcs are   56 randomized atomic wfcs
     Checking if some PAW data can be deallocated... 

     total cpu time spent up to now is        8.2 secs

     per-process dynamical memory:    55.4 Mb

     Self-consistent Calculation

     iteration #  1     ecut=    80.00 Ry     beta= 0.30
     Davidson diagonalization with overlap
     ethr =  1.00E-02,  avg # of iterations =  4.8

     Threshold (ethr) on eigenvalues was too large:
     Diagonalizing with lowered threshold

     Davidson diagonalization with overlap
     ethr =  4.39E-04,  avg # of iterations =  3.0

     negative rho (up, down):  9.894E-07 0.000E+00

     total cpu time spent up to now is       25.5 secs

     total energy              =   -2326.93120216 Ry
     estimated scf accuracy    <       0.43827347 Ry

     iteration #  2     ecut=    80.00 Ry     beta= 0.30
     Davidson diagonalization with overlap
     ethr =  4.76E-04,  avg # of iterations =  1.4

     negative rho (up, down):  1.231E-08 0.000E+00

     total cpu time spent up to now is       32.8 secs

     total energy              =   -2326.88010515 Ry
     estimated scf accuracy    <       0.23084575 Ry

     iteration #  3     ecut=    80.00 Ry     beta= 0.30
     Davidson diagonalization with overlap
     ethr =  2.51E-04,  avg # of iterations =  3.4

     negative rho (up, down):  2.604E-08 0.000E+00

     total cpu time spent up to now is       41.4 secs

     total energy              =   -2326.89134086 Ry
     estimated scf accuracy    <       0.02671150 Ry

     iteration #  4     ecut=    80.00 Ry     beta= 0.30
     Davidson diagonalization with overlap
     ethr =  2.90E-05,  avg # of iterations =  8.8

     negative rho (up, down):  2.557E-08 0.000E+00

     total cpu time spent up to now is       51.5 secs

     total energy              =   -2326.89169004 Ry
     estimated scf accuracy    <       0.00901068 Ry

     iteration #  5     ecut=    80.00 Ry     beta= 0.30
     Davidson diagonalization with overlap
     ethr =  9.79E-06,  avg # of iterations =  3.6

     negative rho (up, down):  1.213E-07 0.000E+00

     total cpu time spent up to now is       60.5 secs

     total energy              =   -2326.89107669 Ry
     estimated scf accuracy    <       0.00469617 Ry

     iteration #  6     ecut=    80.00 Ry     beta= 0.30
     Davidson diagonalization with overlap
     ethr =  5.10E-06,  avg # of iterations =  7.7

     total cpu time spent up to now is       70.3 secs

     total energy              =   -2326.89092807 Ry
     estimated scf accuracy    <       0.00219304 Ry

     iteration #  7     ecut=    80.00 Ry     beta= 0.30
     Davidson diagonalization with overlap
     ethr =  2.38E-06,  avg # of iterations =  4.1

     negative rho (up, down):  7.071E-05 0.000E+00

     total cpu time spent up to now is       79.3 secs

     total energy              =   -2326.89077366 Ry
     estimated scf accuracy    <       0.00184438 Ry

     iteration #  8     ecut=    80.00 Ry     beta= 0.30
     Davidson diagonalization with overlap
     c_bands:  1 eigenvalues not converged
     ethr =  2.00E-06,  avg # of iterations =  7.8

     negative rho (up, down):  1.076E-03 0.000E+00

     total cpu time spent up to now is       89.1 secs

     total energy              =   -2326.89072202 Ry
     estimated scf accuracy    <       0.00089538 Ry

     iteration #  9     ecut=    80.00 Ry     beta= 0.30
     Davidson diagonalization with overlap
     ethr =  9.73E-07,  avg # of iterations =  2.5

     negative rho (up, down):  1.760E-03 0.000E+00

     total cpu time spent up to now is       97.8 secs

     total energy              =   -2326.89081266 Ry
     estimated scf accuracy    <       0.00047430 Ry

     iteration # 10     ecut=    80.00 Ry     beta= 0.30
     Davidson diagonalization with overlap
     ethr =  5.16E-07,  avg # of iterations =  7.0

     negative rho (up, down):  4.680E-03 0.000E+00

     total cpu time spent up to now is      107.5 secs

     total energy              =   -2326.89071402 Ry
     estimated scf accuracy    <       0.00029614 Ry

     iteration # 11     ecut=    80.00 Ry     beta= 0.30
     Davidson diagonalization with overlap
     ethr =  3.22E-07,  avg # of iterations =  6.9

     negative rho (up, down):  3.085E-03 0.000E+00

     total cpu time spent up to now is      117.0 secs

     total energy              =   -2326.89075747 Ry
     estimated scf accuracy    <       0.00010993 Ry

     iteration # 12     ecut=    80.00 Ry     beta= 0.30
     Davidson diagonalization with overlap
     ethr =  1.19E-07,  avg # of iterations =  1.7

     negative rho (up, down):  2.125E-03 0.000E+00

     total cpu time spent up to now is      125.3 secs

     total energy              =   -2326.89076787 Ry
     estimated scf accuracy    <       0.00005057 Ry

     iteration # 13     ecut=    80.00 Ry     beta= 0.30
     Davidson diagonalization with overlap
     ethr =  5.50E-08,  avg # of iterations =  1.7

     negative rho (up, down):  1.127E-03 0.000E+00

     total cpu time spent up to now is      133.7 secs

     total energy              =   -2326.89077931 Ry
     estimated scf accuracy    <       0.00000850 Ry

     iteration # 14     ecut=    80.00 Ry     beta= 0.30
     Davidson diagonalization with overlap
     ethr =  9.24E-09,  avg # of iterations =  5.0

     negative rho (up, down):  4.436E-04 0.000E+00

     total cpu time spent up to now is      144.6 secs

     total energy              =   -2326.89078528 Ry
     estimated scf accuracy    <       0.00000324 Ry

     iteration # 15     ecut=    80.00 Ry     beta= 0.30
     Davidson diagonalization with overlap
     ethr =  3.52E-09,  avg # of iterations =  5.7

     negative rho (up, down):  1.421E-04 0.000E+00

     total cpu time spent up to now is      154.2 secs

     total energy              =   -2326.89078721 Ry
     estimated scf accuracy    <       0.00000092 Ry

     iteration # 16     ecut=    80.00 Ry     beta= 0.30
     Davidson diagonalization with overlap
     ethr =  1.00E-09,  avg # of iterations =  5.1

     negative rho (up, down):  1.268E-04 0.000E+00

     total cpu time spent up to now is      163.9 secs

     total energy              =   -2326.89078890 Ry
     estimated scf accuracy    <       0.00000013 Ry

     iteration # 17     ecut=    80.00 Ry     beta= 0.30
     Davidson diagonalization with overlap
     ethr =  1.45E-10,  avg # of iterations =  2.2

     negative rho (up, down):  1.238E-04 0.000E+00

     total cpu time spent up to now is      173.7 secs

     total energy              =   -2326.89078888 Ry
     estimated scf accuracy    <       0.00000001 Ry

     iteration # 18     ecut=    80.00 Ry     beta= 0.30
     Davidson diagonalization with overlap
     ethr =  1.52E-11,  avg # of iterations =  2.0

     negative rho (up, down):  1.317E-04 0.000E+00

     total cpu time spent up to now is      182.2 secs

     End of self-consistent calculation

          k = 0.0000 0.0000 0.0000 ( 22715 PWs)   bands (ev):

   -58.9052 -58.8985 -45.4180 -45.4180 -45.4150 -45.4150 -45.3976 -45.3976
   -45.3779 -45.3779 -45.3729 -45.3729 -45.3724 -45.3724 -45.3521 -45.3504
   -45.3434 -45.3434 -45.3241 -45.3241 -45.3182 -45.2991 -33.0531 -33.0515
   -32.9859 -32.9859 -32.9744 -32.9744 -12.8371 -12.6800 -11.6796 -11.4574
    -4.1625  -3.5593  -1.2541  -1.2541  -1.2383  -1.2383  -0.7610   0.4185
     1.5922   1.5923   1.5963   1.6010   1.6010   2.3663   2.8752   2.8752
     2.9493   2.9493   6.3957   6.3957   6.4946   6.5137   6.5137

          k = 0.0000 0.0722 0.0000 ( 22647 PWs)   bands (ev):

   -58.9042 -58.8975 -45.4179 -45.4178 -45.4149 -45.4148 -45.3976 -45.3974
   -45.3778 -45.3777 -45.3729 -45.3729 -45.3724 -45.3724 -45.3520 -45.3503
   -45.3434 -45.3434 -45.3241 -45.3241 -45.3181 -45.2990 -33.0503 -33.0487
   -32.9978 -32.9885 -32.9864 -32.9771 -12.7764 -12.6194 -11.6566 -11.4389
    -4.0869  -3.4844  -1.6151  -1.4489  -1.2197  -1.2028  -0.4182   0.5534
     1.3043   1.3271   1.4058   1.4240   1.5953   2.1566   2.9217   3.0422
     3.0678   3.1147   6.0349   6.1544   6.3196   6.4564   6.6016

          k = 0.0000 0.1443 0.0000 ( 22623 PWs)   bands (ev):

   -58.9013 -58.8945 -45.4179 -45.4172 -45.4149 -45.4142 -45.3976 -45.3969
   -45.3778 -45.3771 -45.3731 -45.3730 -45.3726 -45.3725 -45.3517 -45.3501
   -45.3435 -45.3434 -45.3242 -45.3241 -45.3178 -45.2987 -33.0425 -33.0410
   -33.0313 -33.0201 -32.9960 -32.9846 -12.5989 -12.4423 -11.5896 -11.3849
    -3.8695  -3.2704  -2.1139  -1.8501  -1.1341  -1.1137  -0.0759   0.3711
     0.5978   0.9178   1.0586   1.0892   1.5683   1.9433   2.9362   3.2942
     3.3271   3.4081   5.4243   5.5265   6.1657   6.3325   6.8541

          k = 0.0000 0.2165 0.0000 ( 22597 PWs)   bands (ev):

   -58.8969 -58.8901 -45.4178 -45.4164 -45.4148 -45.4133 -45.3975 -45.3960
   -45.3777 -45.3762 -45.3733 -45.3731 -45.3728 -45.3726 -45.3513 -45.3496
   -45.3437 -45.3435 -45.3244 -45.3242 -45.3174 -45.2983 -33.0821 -33.0707
   -33.0302 -33.0286 -33.0073 -32.9958 -12.3194 -12.1644 -11.4834 -11.2999
    -3.5529  -2.9716  -2.5120  -2.2144  -1.0544  -1.0274  -0.6582  -0.5988
     0.3579   0.7801   0.8210   0.9350   1.4547   1.6874   3.0204   3.4242
     3.5121   3.6090   4.9729   5.2737   6.0603   6.2507   7.2322

          k = 0.0000 0.2887 0.0000 ( 22635 PWs)   bands (ev):

   -58.8917 -58.8850 -45.4178 -45.4154 -45.4147 -45.4124 -45.3974 -45.3951
   -45.3776 -45.3753 -45.3735 -45.3732 -45.3730 -45.3727 -45.3509 -45.3492
   -45.3439 -45.3437 -45.3247 -45.3244 -45.3169 -45.2978 -33.1408 -33.1294
   -33.0205 -33.0162 -33.0145 -33.0090 -11.9680 -11.8177 -11.3421 -11.1862
    -3.3136  -2.8588  -2.6254  -2.2398  -1.7173  -1.6361  -1.0593  -1.0240
     0.3294   0.6881   0.7263   0.7417   1.1815   1.3276   3.1346   3.5383
     3.5489   3.6519   4.9977   5.5504   6.0571   6.2716   7.7187

          k = 0.0000 0.3608 0.0000 ( 22649 PWs)   bands (ev):

   -58.8865 -58.8798 -45.4177 -45.4147 -45.4145 -45.4115 -45.3973 -45.3941
   -45.3776 -45.3744 -45.3737 -45.3733 -45.3733 -45.3728 -45.3504 -45.3487
   -45.3442 -45.3438 -45.3249 -45.3245 -45.3165 -45.2974 -33.1990 -33.1875
   -33.0337 -33.0222 -33.0020 -33.0004 -11.6078 -11.4707 -11.1536 -11.0272
    -3.3670  -3.1049  -2.6664  -2.5649  -2.2717  -1.8825  -1.1641  -1.1221
     0.0119   0.2902   0.7817   0.8563   0.8973   1.0680   3.3510   3.5012
     3.5892   3.7367   5.4368   6.0794   6.1168   6.3608   8.2505

          k = 0.0000 0.4330 0.0000 ( 22679 PWs)   bands (ev):

   -58.8821 -58.8754 -45.4176 -45.4146 -45.4136 -45.4106 -45.3973 -45.3933
   -45.3777 -45.3738 -45.3738 -45.3735 -45.3732 -45.3729 -45.3500 -45.3484
   -45.3443 -45.3439 -45.3251 -45.3246 -45.3161 -45.2970 -33.2479 -33.2364
   -33.0448 -33.0333 -32.9900 -32.9883 -11.3472 -11.2413 -10.8832 -10.7786
    -3.7617  -3.6901  -3.1117  -2.8171  -1.9650  -1.7218  -1.3001  -1.2539
    -0.3553  -0.0527   0.7502   0.8978   0.9505   1.0552   3.4502   3.5050
     3.6691   3.9791   6.0264   6.1821   6.4556   6.5846   8.0941

          k = 0.0000 0.5052 0.0000 ( 22676 PWs)   bands (ev):

   -58.8791 -58.8724 -45.4176 -45.4146 -45.4131 -45.4101 -45.3972 -45.3927
   -45.3777 -45.3739 -45.3737 -45.3736 -45.3730 -45.3728 -45.3497 -45.3481
   -45.3444 -45.3440 -45.3252 -45.3247 -45.3158 -45.2967 -33.2803 -33.2688
   -33.0522 -33.0408 -32.9819 -32.9802 -11.2154 -11.1434 -10.6058 -10.5251
    -4.2982  -4.2204  -3.0297  -2.7619  -2.0640  -1.8656  -1.4024  -1.3540
    -0.3856  -0.0336   0.6523   0.7635   1.0870   1.2216   3.4293   3.4504
     3.9948   4.1799   6.2252   6.4912   6.5200   6.8436   7.6281

          k = 0.0000-0.5774 0.0000 ( 22704 PWs)   bands (ev):

   -58.8781 -58.8714 -45.4176 -45.4146 -45.4129 -45.4099 -45.3972 -45.3926
   -45.3777 -45.3739 -45.3737 -45.3737 -45.3730 -45.3727 -45.3496 -45.3480
   -45.3445 -45.3440 -45.3252 -45.3247 -45.3157 -45.2966 -33.2917 -33.2802
   -33.0548 -33.0434 -32.9791 -32.9774 -11.1740 -11.1174 -10.4864 -10.4225
    -4.4994  -4.4281  -2.8606  -2.7448  -2.2156  -2.0306  -1.4395  -1.3904
    -0.2917   0.0445   0.5996   0.7017   1.1369   1.2844   3.4236   3.4371
     4.1645   4.2410   6.2396   6.5421   6.6157   6.9194   7.3875

          k = 0.0625 0.1083 0.0000 ( 22621 PWs)   bands (ev):

   -58.9022 -58.8955 -45.4179 -45.4174 -45.4149 -45.4144 -45.3976 -45.3971
   -45.3778 -45.3773 -45.3730 -45.3730 -45.3725 -45.3724 -45.3518 -45.3501
   -45.3435 -45.3434 -45.3242 -45.3241 -45.3179 -45.2988 -33.0450 -33.0434
   -33.0203 -33.0089 -32.9939 -32.9825 -12.6572 -12.5004 -11.6116 -11.4027
    -3.9398  -3.3392  -1.9843  -1.7363  -1.1641  -1.1473  -0.1319   0.6281
     0.8497   0.8721   1.0744   1.1481   1.6104   2.0355   2.9506   3.2197
     3.2604   3.2924   5.6765   5.7136   6.1571   6.2693   6.7764

          k = 0.0625 0.1804 0.0000 ( 22619 PWs)   bands (ev):

   -58.8985 -58.8918 -45.4178 -45.4167 -45.4148 -45.4137 -45.3975 -45.3964
   -45.3777 -45.3766 -45.3732 -45.3731 -45.3727 -45.3725 -45.3515 -45.3498
   -45.3437 -45.3435 -45.3244 -45.3242 -45.3176 -45.2985 -33.0615 -33.0501
   -33.0350 -33.0335 -33.0041 -32.9927 -12.4282 -12.2724 -11.5254 -11.3335
    -3.6665  -3.0723  -2.3899  -2.1033  -1.1161  -1.0944  -0.1544  -0.0659
     0.2369   0.4793   0.8253   1.1230   1.5899   1.9021   3.0459   3.2895
     3.4068   3.5034   5.2741   5.4285   5.9140   6.0635   7.0896

          k = 0.0625 0.2526 0.0000 ( 22644 PWs)   bands (ev):

   -58.8938 -58.8870 -45.4177 -45.4158 -45.4147 -45.4128 -45.3974 -45.3955
   -45.3776 -45.3757 -45.3735 -45.3732 -45.3729 -45.3726 -45.3511 -45.3494
   -45.3439 -45.3436 -45.3246 -45.3243 -45.3171 -45.2980 -33.1147 -33.1033
   -33.0224 -33.0220 -33.0161 -33.0059 -12.1102 -11.9573 -11.4034 -11.2362
    -3.3535  -2.8141  -2.6504  -2.3205  -1.3670  -1.3202  -0.8721  -0.8432
     0.1432   0.2923   0.7334   1.0100   1.4822   1.6789   3.0724   3.2720
     3.5062   3.7032   5.0910   5.3968   5.8975   6.0428   7.5227

          k = 0.0625 0.3248 0.0000 ( 22644 PWs)   bands (ev):

   -58.8886 -58.8818 -45.4176 -45.4149 -45.4146 -45.4119 -45.3973 -45.3946
   -45.3776 -45.3748 -45.3737 -45.3733 -45.3732 -45.3727 -45.3506 -45.3489
   -45.3441 -45.3437 -45.3248 -45.3244 -45.3167 -45.2976 -33.1718 -33.1604
   -33.0327 -33.0215 -33.0072 -33.0058 -11.7455 -11.6001 -11.2454 -11.1082
    -3.2788  -2.9135  -2.5124  -2.2576  -2.1727  -2.0355  -1.1079  -1.1018
     0.1250   0.2436   0.4676   0.6243   1.3646   1.5215   3.0976   3.3175
     3.6430   3.8229   5.2142   5.5401   6.0909   6.2376   8.0496

          k = 0.0625 0.3969 0.0000 ( 22664 PWs)   bands (ev):

   -58.8838 -58.8770 -45.4176 -45.4145 -45.4141 -45.4111 -45.3972 -45.3937
   -45.3775 -45.3741 -45.3737 -45.3735 -45.3733 -45.3728 -45.3501 -45.3485
   -45.3443 -45.3438 -45.3250 -45.3245 -45.3162 -45.2971 -33.2241 -33.2126
   -33.0459 -33.0345 -32.9945 -32.9929 -11.4239 -11.3004 -11.0228 -10.9118
    -3.4511  -3.3454  -2.9824  -2.7752  -2.0743  -1.7306  -1.3024  -1.2938
    -0.0937   0.1124   0.2439   0.3013   1.3898   1.4926   3.2203   3.3722
     3.7499   3.9462   5.5529   5.7560   6.3067   6.5864   8.4369

          k = 0.0625 0.4691 0.0000 ( 22676 PWs)   bands (ev):

   -58.8801 -58.8734 -45.4175 -45.4145 -45.4134 -45.4104 -45.3971 -45.3930
   -45.3776 -45.3740 -45.3737 -45.3735 -45.3731 -45.3729 -45.3498 -45.3482
   -45.3444 -45.3439 -45.3252 -45.3246 -45.3159 -45.2968 -33.2637 -33.2522
   -33.0561 -33.0447 -32.9846 -32.9829 -11.2363 -11.1492 -10.7325 -10.6419
    -4.0135  -3.9360  -3.0955  -2.8121  -1.9321  -1.7547  -1.4276  -1.3865
    -0.3256  -0.0698   0.2272   0.2847   1.4599   1.4963   3.3402   3.4141
     3.9151   4.0965   5.8042   6.0151   6.5238   6.8368   8.0763

          k = 0.0625 0.5413 0.0000 ( 22689 PWs)   bands (ev):

   -58.8781 -58.8714 -45.4175 -45.4144 -45.4130 -45.4101 -45.3971 -45.3927
   -45.3776 -45.3741 -45.3738 -45.3735 -45.3730 -45.3728 -45.3496 -45.3480
   -45.3445 -45.3440 -45.3253 -45.3247 -45.3157 -45.2966 -33.2851 -33.2736
   -33.0617 -33.0502 -32.9791 -32.9774 -11.1541 -11.0943 -10.5190 -10.4528
    -4.3922  -4.3189  -2.9324  -2.7576  -2.1476  -1.9494  -1.4517  -1.4414
    -0.2794   0.0026   0.2172   0.2584   1.4841   1.4919   3.4154   3.4454
     4.0905   4.1888   5.9075   6.1788   6.6353   6.9285   7.6687

          k = 0.1250 0.2165 0.0000 ( 22647 PWs)   bands (ev):

   -58.8945 -58.8878 -45.4177 -45.4161 -45.4147 -45.4130 -45.3974 -45.3957
   -45.3776 -45.3759 -45.3734 -45.3732 -45.3729 -45.3726 -45.3511 -45.3495
   -45.3438 -45.3436 -45.3246 -45.3243 -45.3172 -45.2981 -33.1038 -33.0923
   -33.0249 -33.0248 -33.0161 -33.0062 -12.1590 -12.0053 -11.4244 -11.2533
    -3.3715  -2.7972  -2.6450  -2.3414  -1.3485  -1.3099  -0.4287  -0.3715
    -0.3219  -0.1709   0.8000   1.1266   1.6350   1.8924   3.0986   3.1383
     3.3172   3.7223   5.3889   5.5081   5.5636   5.7706   7.4579

          k = 0.1250 0.2887 0.0000 ( 22643 PWs)   bands (ev):

   -58.8897 -58.8830 -45.4175 -45.4153 -45.4145 -45.4123 -45.3972 -45.3949
   -45.3774 -45.3751 -45.3737 -45.3733 -45.3731 -45.3727 -45.3507 -45.3490
   -45.3441 -45.3437 -45.3248 -45.3244 -45.3168 -45.2977 -33.1525 -33.1410
   -33.0371 -33.0263 -33.0095 -33.0085 -11.8190 -11.6698 -11.2924 -11.1494
    -3.1856  -2.7646  -2.6390  -2.2109  -1.9806  -1.9166  -0.9249  -0.8659
    -0.4183  -0.3445   0.7010   0.8422   1.6703   1.8789   2.8898   3.0817
     3.5968   3.9207   5.1334   5.1816   5.8392   6.1727   7.9365

          k = 0.1250 0.3608 0.0000 ( 22643 PWs)   bands (ev):

   -58.8849 -58.8782 -45.4173 -45.4145 -45.4143 -45.4115 -45.3970 -45.3941
   -45.3773 -45.3744 -45.3738 -45.3735 -45.3732 -45.3728 -45.3502 -45.3486
   -45.3443 -45.3438 -45.3250 -45.3245 -45.3163 -45.2972 -33.2004 -33.1889
   -33.0547 -33.0434 -32.9974 -32.9958 -11.4666 -11.3288 -11.1213 -11.0101
    -3.2535  -2.9847  -2.7232  -2.6695  -2.2143  -1.8113  -1.3206  -1.2658
    -0.4506  -0.3637   0.2779   0.4011   1.7569   1.9289   2.8942   3.1477
     3.8320   4.0188   5.0401   5.1575   6.2033   6.5836   8.4618

          k = 0.1250 0.4330 0.0000 ( 22664 PWs)   bands (ev):

   -58.8808 -58.8741 -45.4172 -45.4141 -45.4138 -45.4108 -45.3968 -45.3935
   -45.3772 -45.3742 -45.3737 -45.3736 -45.3732 -45.3729 -45.3499 -45.3483
   -45.3445 -45.3438 -45.3253 -45.3245 -45.3160 -45.2969 -33.2406 -33.2291
   -33.0699 -33.0585 -32.9865 -32.9849 -11.2171 -11.1125 -10.8685 -10.7772
    -3.6063  -3.5430  -3.0973  -2.8474  -1.8756  -1.6541  -1.5642  -1.4277
    -0.5022  -0.4015  -0.1135  -0.0026   1.8425   1.9624   3.0569   3.2751
     3.9551   4.0599   5.1580   5.3469   6.5174   6.8481   8.6207

          k = 0.1250 0.5052 0.0000 ( 22676 PWs)   bands (ev):

   -58.8781 -58.8714 -45.4171 -45.4141 -45.4134 -45.4104 -45.3967 -45.3930
   -45.3772 -45.3743 -45.3739 -45.3734 -45.3730 -45.3729 -45.3496 -45.3481
   -45.3446 -45.3439 -45.3254 -45.3246 -45.3157 -45.2966 -33.2672 -33.2557
   -33.0801 -33.0686 -32.9792 -32.9775 -11.0965 -11.0283 -10.6061 -10.5363
    -4.0930  -4.0198  -3.0268  -2.8319  -1.9877  -1.8164  -1.5437  -1.4304
    -0.5312  -0.4122  -0.2438  -0.1182   1.8311   1.9271   3.2992   3.4348
     4.0021   4.0708   5.3370   5.5532   6.6547   6.9126   8.2695

          k = 0.1250 0.5774 0.0000 ( 22694 PWs)   bands (ev):

   -58.8771 -58.8704 -45.4171 -45.4140 -45.4132 -45.4102 -45.3967 -45.3929
   -45.3772 -45.3743 -45.3739 -45.3733 -45.3729 -45.3729 -45.3496 -45.3480
   -45.3447 -45.3439 -45.3255 -45.3246 -45.3156 -45.2965 -33.2766 -33.2651
   -33.0837 -33.0722 -32.9767 -32.9749 -11.0579 -11.0059 -10.4949 -10.4414
    -4.2744  -4.2021  -2.9134  -2.8398  -2.1115  -1.9048  -1.5416  -1.4707
    -0.5345  -0.4111  -0.2327  -0.0856   1.8021   1.8927   3.4574   3.4943
     3.9997   4.0617   5.4315   5.6406   6.6505   6.9071   8.0615

          k = 0.1875 0.3248 0.0000 ( 22633 PWs)   bands (ev):

   -58.8853 -58.8786 -45.4172 -45.4147 -45.4142 -45.4117 -45.3968 -45.3943
   -45.3772 -45.3746 -45.3739 -45.3735 -45.3732 -45.3728 -45.3503 -45.3486
   -45.3443 -45.3437 -45.3251 -45.3244 -45.3164 -45.2973 -33.1896 -33.1781
   -33.0603 -33.0489 -32.9984 -32.9968 -11.4798 -11.3359 -11.1570 -11.0470
    -3.1751  -2.8350  -2.6021  -2.5905  -2.2663  -1.8786  -1.1822  -1.0844
    -0.8677  -0.8125   0.4522   0.5111   1.9167   2.1184   2.7514   3.0315
     3.8414   4.0608   4.8354   4.8770   6.1756   6.5751   8.4294

          k = 0.1875 0.3969 0.0000 ( 22633 PWs)   bands (ev):

   -58.8812 -58.8745 -45.4169 -45.4142 -45.4138 -45.4112 -45.3965 -45.3938
   -45.3769 -45.3742 -45.3740 -45.3737 -45.3731 -45.3728 -45.3499 -45.3483
   -45.3445 -45.3438 -45.3253 -45.3245 -45.3160 -45.2969 -33.2216 -33.2101
   -33.0839 -33.0725 -32.9876 -32.9859 -11.1727 -11.0433 -10.9762 -10.9016
    -3.2716  -3.1833  -3.0529  -2.8806  -1.9228  -1.5826  -1.5381  -1.3981
    -1.1054  -1.0058  -0.0118   0.1277   2.1606   2.3181   2.8068   3.0857
     3.9891   4.0556   4.7392   4.8826   6.5228   6.8448   8.8407

          k = 0.1875 0.4691 0.0000 ( 22655 PWs)   bands (ev):

   -58.8781 -58.8714 -45.4166 -45.4138 -45.4136 -45.4108 -45.3962 -45.3935
   -45.3767 -45.3744 -45.3739 -45.3737 -45.3730 -45.3728 -45.3496 -45.3481
   -45.3447 -45.3438 -45.3255 -45.3245 -45.3157 -45.2966 -33.2449 -33.2333
   -33.1031 -33.0916 -32.9793 -32.9776 -11.0101 -10.9290 -10.7202 -10.6531
    -3.6917  -3.6324  -3.0832  -2.9094  -1.9063  -1.7419  -1.5443  -1.3519
    -1.2188  -1.0684  -0.3131  -0.2207   2.2167   2.3499   3.0521   3.2729
     3.9782   3.9998   4.8757   5.0792   6.6927   6.8716   8.8579

          k = 0.1875 0.5413 0.0000 ( 22663 PWs)   bands (ev):

   -58.8764 -58.8697 -45.4165 -45.4136 -45.4134 -45.4106 -45.3961 -45.3933
   -45.3766 -45.3745 -45.3740 -45.3736 -45.3729 -45.3728 -45.3495 -45.3480
   -45.3448 -45.3438 -45.3256 -45.3245 -45.3156 -45.2965 -33.2570 -33.2455
   -33.1138 -33.1023 -32.9748 -32.9731 -10.9389 -10.8888 -10.5366 -10.4907
    -3.9685  -3.8964  -3.0116  -2.9321  -2.0246  -1.8332  -1.5638  -1.4342
    -1.2114  -1.0708  -0.3545  -0.3292   2.1530   2.2863   3.3866   3.4946
     3.8368   3.8888   5.1137   5.2409   6.6078   6.7838   8.6739

          k = 0.2500 0.4330 0.0000 ( 22621 PWs)   bands (ev):

   -58.8781 -58.8714 -45.4163 -45.4140 -45.4133 -45.4110 -45.3960 -45.3937
   -45.3765 -45.3743 -45.3741 -45.3739 -45.3729 -45.3728 -45.3496 -45.3481
   -45.3447 -45.3438 -45.3255 -45.3245 -45.3157 -45.2966 -33.2331 -33.2216
   -33.1151 -33.1036 -32.9793 -32.9776 -10.9431 -10.8411 -10.7977 -10.7488
    -3.4586  -3.4153  -3.1017  -2.9482  -1.8609  -1.6683  -1.6372  -1.5754
    -1.4324  -1.1688  -0.4182  -0.2241   2.5215   2.6118   2.8230   3.0570
     3.9765   3.9893   4.6872   4.9285   6.7190   6.8426   9.0602

          k = 0.2500 0.5052 0.0000 ( 22656 PWs)   bands (ev):

   -58.8760 -58.8693 -45.4159 -45.4141 -45.4129 -45.4111 -45.3956 -45.3937
   -45.3762 -45.3745 -45.3741 -45.3740 -45.3728 -45.3728 -45.3495 -45.3479
   -45.3448 -45.3438 -45.3257 -45.3245 -45.3155 -45.2964 -33.2357 -33.2242
   -33.1409 -33.1294 -32.9738 -32.9720 -10.8241 -10.7690 -10.6160 -10.5768
    -3.6048  -3.5418  -3.0835  -3.0068  -2.1475  -2.0788  -1.7099  -1.5214
    -1.2496  -1.1298  -0.6732  -0.5178   2.5647   2.6973   3.0492   3.2169
     3.7873   3.8261   4.9223   5.2071   6.5126   6.6920   9.0282

          k = 0.2500 0.5774 0.0000 ( 22665 PWs)   bands (ev):

   -58.8753 -58.8686 -45.4158 -45.4141 -45.4127 -45.4111 -45.3954 -45.3937
   -45.3760 -45.3746 -45.3741 -45.3741 -45.3728 -45.3727 -45.3494 -45.3479
   -45.3449 -45.3438 -45.3257 -45.3245 -45.3155 -45.2964 -33.2350 -33.2235
   -33.1516 -33.1401 -32.9718 -32.9701 -10.7830 -10.7490 -10.5399 -10.5151
    -3.6509  -3.5751  -3.0712  -3.0386  -2.2812  -2.2586  -1.6017  -1.3937
    -1.3476  -1.2285  -0.6949  -0.5842   2.5245   2.6632   3.3538   3.4561
     3.5285   3.5975   5.2031   5.3334   6.3696   6.4780   9.0128

          k = 0.3125 0.5413 0.0000 ( 22659 PWs)   bands (ev):

   -58.8749 -58.8682 -45.4153 -45.4144 -45.4123 -45.4114 -45.3949 -45.3941
   -45.3756 -45.3746 -45.3744 -45.3742 -45.3728 -45.3727 -45.3494 -45.3479
   -45.3449 -45.3437 -45.3258 -45.3245 -45.3155 -45.2964 -33.2152 -33.2037
   -33.1770 -33.1655 -32.9708 -32.9691 -10.6853 -10.6589 -10.5835 -10.5672
    -3.3492  -3.2687  -3.1065  -3.0827  -2.7087  -2.6335  -1.5660  -1.3288
    -1.1515  -1.1296  -1.0030  -0.7910   2.9008   3.0139   3.0378   3.1795
     3.4240   3.5134   5.3241   5.6306   6.0234   6.3368   8.9454

     the Fermi energy is     2.7964 ev

!    total energy              =   -2326.89078894 Ry
     total all-electron energy =    -35628.638618 Ry
     estimated scf accuracy    <          8.4E-09 Ry
     smearing contrib. (-TS)   =       0.00137866 Ry
     internal energy E=F+TS    =   -2326.89216760 Ry

     The total energy is F=E-TS. E is the sum of the following terms:
     one-electron contribution =  -12052.84154303 Ry
     hartree contribution      =    6024.49833993 Ry
     xc contribution           =    -152.90976080 Ry
     ewald contribution        =    4864.90303382 Ry
     one-center paw contrib.   =   -1010.54223752 Ry

     convergence has been achieved in  18 iterations

     negative rho (up, down):  1.317E-04 0.000E+00

     Forces acting on atoms (cartesian axes, Ry/au):

     atom    1 type  2   force =     0.00000000    0.00000000   -0.09057749
     atom    2 type  1   force =     0.00000000   -0.00000000    0.00041150
     atom    3 type  2   force =     0.00000000    0.00000000    0.09126494
     atom    4 type  2   force =     0.00000000    0.00000000   -0.09055308
     atom    5 type  1   force =     0.00000000   -0.00000000   -0.00250192
     atom    6 type  2   force =     0.00000000    0.00000000    0.09195605

     Total force =     0.182197     Total SCF correction =     0.000509

     BFGS Geometry Optimization
     Energy error            =      3.3E-02 Ry
     Gradient error          =      9.2E-02 Ry/Bohr

     number of scf cycles    =   1
     number of bfgs steps    =   0

     energy             new  =   -2326.8907889360 Ry

     new trust radius        =       0.0919560483 bohr
     new conv_thr            =       0.0000000100 Ry


ATOMIC_POSITIONS (crystal)
Se               0.3333330000        0.6666670000        0.0659022819
Mo              -0.0000000000       -0.0000000000        0.1200072585
Se               0.6666670000        0.3333330000        0.1741098442
Se               0.3333330000        0.6666670000        0.2742027125
Mo               0.6666670000        0.3333330000        0.3282558681
Se               0.0000000000        0.0000000000        0.3824220348



     Writing config-only to output data dir ./tmp/relax/mose2_relax.save/ :
     XML data file
     NEW-OLD atomic charge density approx. for the potential

     negative rho (up, down):  1.247E-04 0.000E+00

     total cpu time spent up to now is      185.6 secs

     per-process dynamical memory:    64.9 Mb

     Self-consistent Calculation

     iteration #  1     ecut=    80.00 Ry     beta= 0.30
     Davidson diagonalization with overlap
     c_bands:  1 eigenvalues not converged
     ethr =  1.00E-06,  avg # of iterations = 11.8

     negative rho (up, down):  1.004E-04 0.000E+00

     total cpu time spent up to now is      215.0 secs

     total energy              =   -2326.97223642 Ry
     estimated scf accuracy    <       0.02503082 Ry

     iteration #  2     ecut=    80.00 Ry     beta= 0.30
     Davidson diagonalization with overlap
     ethr =  2.72E-05,  avg # of iterations =  2.0

     negative rho (up, down):  7.774E-05 0.000E+00

     total cpu time spent up to now is      224.9 secs

     total energy              =   -2326.92486417 Ry
     estimated scf accuracy    <       0.00338686 Ry

     iteration #  3     ecut=    80.00 Ry     beta= 0.30
     Davidson diagonalization with overlap
     ethr =  3.68E-06,  avg # of iterations =  2.1

     negative rho (up, down):  6.858E-05 0.000E+00

     total cpu time spent up to now is      235.9 secs

     total energy              =   -2326.92537334 Ry
     estimated scf accuracy    <       0.00046271 Ry

     iteration #  4     ecut=    80.00 Ry     beta= 0.30
     Davidson diagonalization with overlap
     ethr =  5.03E-07,  avg # of iterations =  2.1

     negative rho (up, down):  9.397E-05 0.000E+00

     total cpu time spent up to now is      246.3 secs

     total energy              =   -2326.92105044 Ry
     estimated scf accuracy    <       0.00039616 Ry

     iteration #  5     ecut=    80.00 Ry     beta= 0.30
     Davidson diagonalization with overlap
     ethr =  4.31E-07,  avg # of iterations =  2.0

     negative rho (up, down):  1.747E-04 0.000E+00

     total cpu time spent up to now is      256.8 secs

     total energy              =   -2326.91776335 Ry
     estimated scf accuracy    <       0.00012985 Ry

     iteration #  6     ecut=    80.00 Ry     beta= 0.30
     Davidson diagonalization with overlap
     ethr =  1.41E-07,  avg # of iterations =  3.0

     negative rho (up, down):  1.951E-04 0.000E+00

     total cpu time spent up to now is      268.1 secs

     total energy              =   -2326.91795779 Ry
     estimated scf accuracy    <       0.00001160 Ry

     iteration #  7     ecut=    80.00 Ry     beta= 0.30
     Davidson diagonalization with overlap
     ethr =  1.26E-08,  avg # of iterations =  3.0

     negative rho (up, down):  1.901E-04 0.000E+00

     total cpu time spent up to now is      279.2 secs

     total energy              =   -2326.91794859 Ry
     estimated scf accuracy    <       0.00001473 Ry

     iteration #  8     ecut=    80.00 Ry     beta= 0.30
     Davidson diagonalization with overlap
     ethr =  1.26E-08,  avg # of iterations =  2.0

     negative rho (up, down):  1.908E-04 0.000E+00

     total cpu time spent up to now is      289.1 secs

     total energy              =   -2326.91795315 Ry
     estimated scf accuracy    <       0.00000047 Ry

     iteration #  9     ecut=    80.00 Ry     beta= 0.30
     Davidson diagonalization with overlap
     ethr =  5.10E-10,  avg # of iterations =  2.9

     negative rho (up, down):  1.883E-04 0.000E+00

     total cpu time spent up to now is      298.8 secs

     total energy              =   -2326.91795333 Ry
     estimated scf accuracy    <       0.00000076 Ry

     iteration # 10     ecut=    80.00 Ry     beta= 0.30
     Davidson diagonalization with overlap
     ethr =  5.10E-10,  avg # of iterations =  2.0

     negative rho (up, down):  1.838E-04 0.000E+00

     total cpu time spent up to now is      308.8 secs

     total energy              =   -2326.91795309 Ry
     estimated scf accuracy    <       0.00000069 Ry

     iteration # 11     ecut=    80.00 Ry     beta= 0.30
     Davidson diagonalization with overlap
     ethr =  5.10E-10,  avg # of iterations =  2.0

     negative rho (up, down):  1.751E-04 0.000E+00

     total cpu time spent up to now is      317.7 secs

     total energy              =   -2326.91795327 Ry
     estimated scf accuracy    <       0.00000031 Ry

     iteration # 12     ecut=    80.00 Ry     beta= 0.30
     Davidson diagonalization with overlap
     ethr =  3.34E-10,  avg # of iterations =  1.0

     negative rho (up, down):  1.595E-04 0.000E+00

     total cpu time spent up to now is      325.3 secs

     total energy              =   -2326.91795357 Ry
     estimated scf accuracy    <       0.00000015 Ry

     iteration # 13     ecut=    80.00 Ry     beta= 0.30
     Davidson diagonalization with overlap
     ethr =  1.63E-10,  avg # of iterations =  2.0

     negative rho (up, down):  1.543E-04 0.000E+00

     total cpu time spent up to now is      335.7 secs

     total energy              =   -2326.91795368 Ry
     estimated scf accuracy    <       0.00000001 Ry

     iteration # 14     ecut=    80.00 Ry     beta= 0.30
     Davidson diagonalization with overlap
     ethr =  1.11E-11,  avg # of iterations =  2.0

     negative rho (up, down):  1.288E-04 0.000E+00

     total cpu time spent up to now is      346.1 secs

     End of self-consistent calculation

          k = 0.0000 0.0000 0.0000 ( 22715 PWs)   bands (ev):

   -58.9021 -58.8876 -45.3950 -45.3950 -45.3838 -45.3838 -45.3757 -45.3757
   -45.3528 -45.3528 -45.3464 -45.3464 -45.3459 -45.3459 -45.3331 -45.3279
   -45.3233 -45.3233 -45.2999 -45.2944 -45.2944 -45.2713 -33.0402 -33.0362
   -32.9553 -32.9553 -32.9348 -32.9348 -12.7246 -12.5236 -11.6869 -11.4273
    -4.0885  -3.4115  -0.9583  -0.9583  -0.9328  -0.9328  -0.8463   0.3988
     1.4658   1.7044   1.7044   1.7214   1.7214   2.2838   2.9524   2.9524
     3.0457   3.0457   6.1938   6.1939   6.3306   6.3306   6.4736

          k = 0.0000 0.0722 0.0000 ( 22647 PWs)   bands (ev):

   -58.9011 -58.8866 -45.3949 -45.3948 -45.3838 -45.3836 -45.3757 -45.3755
   -45.3528 -45.3528 -45.3464 -45.3463 -45.3459 -45.3458 -45.3330 -45.3278
   -45.3233 -45.3233 -45.2998 -45.2944 -45.2944 -45.2712 -33.0376 -33.0337
   -32.9667 -32.9579 -32.9463 -32.9374 -12.6654 -12.4646 -11.6602 -11.4055
    -4.0135  -3.3369  -1.4232  -1.1639  -0.9256  -0.8990  -0.4023   0.5368
     1.3665   1.4389   1.5275   1.5503   1.5533   2.1170   2.9822   3.0943
     3.1042   3.1958   5.8581   5.9942   6.1245   6.2811   6.5802

          k = 0.0000 0.1443 0.0000 ( 22623 PWs)   bands (ev):

   -58.8982 -58.8837 -45.3949 -45.3942 -45.3837 -45.3831 -45.3756 -45.3749
   -45.3530 -45.3529 -45.3464 -45.3462 -45.3461 -45.3454 -45.3327 -45.3275
   -45.3235 -45.3233 -45.2995 -45.2945 -45.2944 -45.2709 -33.0303 -33.0263
   -32.9991 -32.9787 -32.9652 -32.9447 -12.4923 -12.2920 -11.5821 -11.3420
    -3.7977  -3.1241  -1.9206  -1.5807  -0.8462  -0.8158  -0.0711   0.4473
     0.7013   0.9185   1.1946   1.2343   1.5038   1.9329   2.9408   3.2725
     3.3588   3.4605   5.2828   5.3956   5.9850   6.1749   6.8361

          k = 0.0000 0.2165 0.0000 ( 22597 PWs)   bands (ev):

   -58.8939 -58.8795 -45.3949 -45.3934 -45.3837 -45.3822 -45.3756 -45.3741
   -45.3532 -45.3530 -45.3465 -45.3463 -45.3461 -45.3446 -45.3323 -45.3271
   -45.3237 -45.3234 -45.2991 -45.2948 -45.2945 -45.2705 -33.0478 -33.0276
   -33.0188 -33.0145 -32.9761 -32.9556 -12.2193 -12.0209 -11.4581 -11.2419
    -3.4821  -2.8247  -2.3184  -1.9630  -0.7804  -0.7427  -0.5567  -0.4853
     0.3301   0.8805   0.9300   0.9822   1.4117   1.6773   2.9769   3.3632
     3.5165   3.6357   4.8593   5.1873   5.8904   6.1073   7.2144

          k = 0.0000 0.2887 0.0000 ( 22635 PWs)   bands (ev):

   -58.8888 -58.8744 -45.3948 -45.3925 -45.3837 -45.3813 -45.3756 -45.3732
   -45.3535 -45.3531 -45.3469 -45.3464 -45.3460 -45.3437 -45.3319 -45.3266
   -45.3239 -45.3236 -45.2987 -45.2950 -45.2947 -45.2700 -33.1041 -33.0836
   -33.0057 -33.0018 -32.9889 -32.9684 -11.8746 -11.6816 -11.2939 -11.1102
    -3.2195  -2.6765  -2.4657  -2.0535  -1.6133  -1.5125  -0.8073  -0.7600
     0.2629   0.6552   0.8490   0.9172   1.1561   1.3150   3.0668   3.4677
     3.5451   3.6692   4.8923   5.4778   5.8848   6.1291   7.7011

          k = 0.0000 0.3608 0.0000 ( 22649 PWs)   bands (ev):

   -58.8838 -58.8693 -45.3948 -45.3915 -45.3836 -45.3804 -45.3755 -45.3722
   -45.3538 -45.3532 -45.3472 -45.3465 -45.3459 -45.3428 -45.3314 -45.3262
   -45.3242 -45.3237 -45.2982 -45.2953 -45.2948 -45.2696 -33.1600 -33.1395
   -33.0017 -32.9925 -32.9887 -32.9812 -11.5159 -11.3386 -11.0842 -10.9360
    -3.2335  -2.9226  -2.5612  -2.4611  -2.1643  -1.7409  -0.9315  -0.8763
    -0.0590   0.2402   0.8740   0.9379   1.0332   1.0453   3.2911   3.5152
     3.6192   3.6817   5.3112   5.9303   5.9831   6.2066   8.2224

          k = 0.0000 0.4330 0.0000 ( 22679 PWs)   bands (ev):

   -58.8795 -58.8650 -45.3947 -45.3907 -45.3836 -45.3796 -45.3755 -45.3715
   -45.3540 -45.3533 -45.3476 -45.3465 -45.3457 -45.3420 -45.3310 -45.3258
   -45.3244 -45.3238 -45.2978 -45.2955 -45.2949 -45.2692 -33.2070 -33.1864
   -33.0126 -32.9921 -32.9813 -32.9775 -11.2407 -11.1026 -10.8086 -10.6851
    -3.6203  -3.5307  -3.0459  -2.7072  -1.8836  -1.6303  -1.0783  -1.0181
    -0.3911  -0.0562   0.7177   0.8649   1.0828   1.2158   3.5010   3.5654
     3.6326   3.9531   5.8683   5.9788   6.2861   6.4504   7.9860

          k = 0.0000 0.5052 0.0000 ( 22676 PWs)   bands (ev):

   -58.8766 -58.8621 -45.3947 -45.3902 -45.3836 -45.3791 -45.3754 -45.3709
   -45.3541 -45.3534 -45.3478 -45.3466 -45.3456 -45.3415 -45.3308 -45.3255
   -45.3245 -45.3239 -45.2976 -45.2956 -45.2950 -45.2689 -33.2382 -33.2176
   -33.0198 -32.9993 -32.9738 -32.9700 -11.0891 -10.9947 -10.5352 -10.4382
    -4.1636  -4.0662  -2.9890  -2.6947  -2.0047  -1.7795  -1.1855  -1.1227
    -0.3895   0.0007   0.6138   0.7252   1.1914   1.3593   3.5160   3.5451
     3.9842   4.1849   6.0095   6.3256   6.3387   6.6963   7.5674

          k = 0.0000-0.5774 0.0000 ( 22704 PWs)   bands (ev):

   -58.8756 -58.8611 -45.3947 -45.3900 -45.3836 -45.3789 -45.3754 -45.3708
   -45.3542 -45.3534 -45.3479 -45.3466 -45.3456 -45.3413 -45.3307 -45.3254
   -45.3246 -45.3239 -45.2975 -45.2957 -45.2950 -45.2688 -33.2491 -33.2285
   -33.0223 -33.0018 -32.9712 -32.9674 -11.0392 -10.9648 -10.4174 -10.3395
    -4.3639  -4.2758  -2.8426  -2.7192  -2.1353  -1.9316  -1.2239  -1.1603
    -0.2823   0.0814   0.5595   0.6614   1.2291   1.4114   3.5245   3.5478
     4.1650   4.2613   6.0196   6.3566   6.4878   6.7794   7.3083

          k = 0.0625 0.1083 0.0000 ( 22621 PWs)   bands (ev):

   -58.8991 -58.8847 -45.3949 -45.3944 -45.3837 -45.3832 -45.3756 -45.3751
   -45.3530 -45.3528 -45.3464 -45.3463 -45.3460 -45.3456 -45.3328 -45.3276
   -45.3234 -45.3233 -45.2996 -45.2945 -45.2944 -45.2710 -33.0326 -33.0287
   -32.9883 -32.9679 -32.9631 -32.9426 -12.5492 -12.3487 -11.6078 -11.3629
    -3.8675  -3.1925  -1.7923  -1.4628  -0.8746  -0.8480  -0.1285   0.6305
     0.9560   0.9725   1.2114   1.2537   1.5506   2.0240   2.9726   3.2494
     3.2639   3.3465   5.5263   5.5700   5.9806   6.1102   6.7574

          k = 0.0625 0.1804 0.0000 ( 22619 PWs)   bands (ev):

   -58.8956 -58.8811 -45.3948 -45.3937 -45.3837 -45.3826 -45.3756 -45.3745
   -45.3531 -45.3529 -45.3464 -45.3463 -45.3461 -45.3450 -45.3325 -45.3272
   -45.3236 -45.3234 -45.2993 -45.2947 -45.2945 -45.2706 -33.0281 -33.0231
   -33.0196 -33.0072 -32.9731 -32.9526 -12.3257 -12.1263 -11.5070 -11.2814
    -3.5965  -2.9276  -2.1935  -1.8415  -0.8438  -0.8117  -0.0949   0.0372
     0.3050   0.5583   0.9427   1.1416   1.5430   1.9011   3.0287   3.2716
     3.4187   3.4921   5.1561   5.3225   5.7569   5.9264   7.0717

          k = 0.0625 0.2526 0.0000 ( 22644 PWs)   bands (ev):

   -58.8909 -58.8764 -45.3948 -45.3929 -45.3836 -45.3817 -45.3755 -45.3736
   -45.3534 -45.3531 -45.3467 -45.3463 -45.3460 -45.3442 -45.3321 -45.3268
   -45.3238 -45.3235 -45.2989 -45.2949 -45.2946 -45.2702 -33.0790 -33.0586
   -33.0113 -33.0073 -32.9861 -32.9656 -12.0146 -11.8186 -11.3642 -11.1671
    -3.2789  -2.6559  -2.4643  -2.0928  -1.2110  -1.1408  -0.6716  -0.6487
     0.1835   0.3880   0.8005   0.9907   1.4656   1.6854   3.0215   3.2309
     3.5024   3.6773   4.9915   5.3031   5.7590   5.9172   7.5046

          k = 0.0625 0.3248 0.0000 ( 22644 PWs)   bands (ev):

   -58.8858 -58.8713 -45.3947 -45.3920 -45.3835 -45.3808 -45.3754 -45.3727
   -45.3537 -45.3532 -45.3471 -45.3464 -45.3458 -45.3432 -45.3316 -45.3264
   -45.3241 -45.3236 -45.2984 -45.2952 -45.2947 -45.2698 -33.1339 -33.1134
   -33.0018 -32.9965 -32.9944 -32.9796 -11.6554 -11.4681 -11.1826 -11.0213
    -3.1611  -2.7190  -2.3833  -2.1515  -2.0476  -1.8720  -0.8938  -0.8855
     0.1410   0.3021   0.5200   0.6281   1.3933   1.5474   3.0447   3.2869
     3.6422   3.7972   5.1071   5.4243   5.9533   6.1084   8.0314

          k = 0.0625 0.3969 0.0000 ( 22664 PWs)   bands (ev):

   -58.8811 -58.8667 -45.3946 -45.3911 -45.3835 -45.3800 -45.3754 -45.3719
   -45.3539 -45.3533 -45.3474 -45.3465 -45.3457 -45.3424 -45.3312 -45.3259
   -45.3243 -45.3238 -45.2980 -45.2954 -45.2948 -45.2693 -33.1841 -33.1636
   -33.0136 -32.9933 -32.9855 -32.9815 -11.3285 -11.1678 -10.9452 -10.8153
    -3.3027  -3.1912  -2.8891  -2.6544  -1.9796  -1.6130  -1.1031  -1.0915
    -0.1200   0.0877   0.3238   0.3795   1.4459   1.5304   3.1981   3.3792
     3.7638   3.9349   5.4168   5.6137   6.1484   6.4428   8.3501

          k = 0.0625 0.4691 0.0000 ( 22676 PWs)   bands (ev):

   -58.8775 -58.8631 -45.3946 -45.3905 -45.3834 -45.3794 -45.3753 -45.3712
   -45.3541 -45.3534 -45.3477 -45.3466 -45.3455 -45.3418 -45.3309 -45.3256
   -45.3245 -45.3238 -45.2977 -45.2956 -45.2949 -45.2690 -33.2223 -33.2017
   -33.0235 -33.0030 -32.9763 -32.9724 -11.1203 -11.0064 -10.6571 -10.5492
    -3.8790  -3.7808  -3.0341  -2.7117  -1.8647  -1.6651  -1.2366  -1.1886
    -0.3167  -0.0479   0.2694   0.3256   1.5190   1.5342   3.3774   3.4725
     3.9319   4.1051   5.6305   5.8668   6.3459   6.6800   7.9928

          k = 0.0625 0.5413 0.0000 ( 22689 PWs)   bands (ev):

   -58.8756 -58.8611 -45.3946 -45.3901 -45.3834 -45.3790 -45.3753 -45.3709
   -45.3542 -45.3534 -45.3478 -45.3467 -45.3455 -45.3414 -45.3307 -45.3254
   -45.3246 -45.3239 -45.2975 -45.2957 -45.2950 -45.2688 -33.2428 -33.2222
   -33.0288 -33.0083 -32.9712 -32.9674 -11.0226 -10.9440 -10.4469 -10.3665
    -4.2584  -4.1675  -2.8961  -2.7065  -2.0725  -1.8518  -1.2589  -1.2436
    -0.2570   0.0401   0.2370   0.2790   1.5188   1.5494   3.5002   3.5404
     4.1027   4.2126   5.7180   6.0198   6.4868   6.7800   7.5941

          k = 0.1250 0.2165 0.0000 ( 22647 PWs)   bands (ev):

   -58.8916 -58.8771 -45.3947 -45.3931 -45.3836 -45.3819 -45.3755 -45.3738
   -45.3534 -45.3530 -45.3467 -45.3463 -45.3460 -45.3444 -45.3321 -45.3269
   -45.3238 -45.3235 -45.2989 -45.2949 -45.2946 -45.2703 -33.0685 -33.0480
   -33.0135 -33.0094 -32.9865 -32.9662 -12.0627 -11.8656 -11.3883 -11.1867
    -3.3035  -2.6519  -2.4492  -2.0940  -1.1457  -1.0906  -0.3004  -0.2380
    -0.2014  -0.0660   0.8330   1.1003   1.6046   1.8978   3.0702   3.1102
     3.2937   3.6913   5.2609   5.3977   5.4544   5.6809   7.4397

          k = 0.1250 0.2887 0.0000 ( 22643 PWs)   bands (ev):

   -58.8869 -58.8724 -45.3946 -45.3923 -45.3834 -45.3812 -45.3753 -45.3730
   -45.3536 -45.3531 -45.3470 -45.3464 -45.3457 -45.3436 -45.3317 -45.3265
   -45.3240 -45.3236 -45.2985 -45.2951 -45.2947 -45.2699 -33.1153 -33.0948
   -33.0070 -32.9982 -32.9980 -32.9824 -11.7297 -11.5378 -11.2332 -11.0649
    -3.0869  -2.5729  -2.4824  -2.0354  -1.8378  -1.7590  -0.7839  -0.7084
    -0.2933  -0.2108   0.6916   0.8044   1.6682   1.8978   2.8471   3.0439
     3.5777   3.8947   5.0229   5.0877   5.7180   6.0669   7.9183

          k = 0.1250 0.3608 0.0000 ( 22643 PWs)   bands (ev):

   -58.8822 -58.8678 -45.3944 -45.3916 -45.3833 -45.3804 -45.3751 -45.3723
   -45.3539 -45.3533 -45.3473 -45.3465 -45.3455 -45.3428 -45.3313 -45.3260
   -45.3243 -45.3237 -45.2981 -45.2954 -45.2948 -45.2694 -33.1614 -33.1408
   -33.0221 -33.0020 -32.9882 -32.9838 -11.3809 -11.2023 -11.0391 -10.9098
    -3.1234  -2.8048  -2.5888  -2.5415  -2.1108  -1.6693  -1.1759  -1.1085
    -0.3516  -0.2474   0.2523   0.3845   1.7766   1.9526   2.8502   3.1176
     3.8387   4.0213   4.9329   5.0557   6.0539   6.4509   8.4374

          k = 0.1250 0.4330 0.0000 ( 22664 PWs)   bands (ev):

   -58.8782 -58.8638 -45.3943 -45.3909 -45.3831 -45.3798 -45.3750 -45.3716
   -45.3541 -45.3533 -45.3475 -45.3467 -45.3453 -45.3422 -45.3309 -45.3257
   -45.3245 -45.3238 -45.2977 -45.2956 -45.2949 -45.2691 -33.2001 -33.1795
   -33.0366 -33.0162 -32.9781 -32.9742 -11.1164 -10.9794 -10.7819 -10.6751
    -3.4704  -3.3920  -3.0038  -2.7105  -1.7898  -1.5510  -1.4213  -1.2732
    -0.4308  -0.3087  -0.1046  -0.0021   1.8575   1.9715   3.0407   3.2793
     3.9970   4.0961   5.0281   5.2296   6.3446   6.6929   8.5513

          k = 0.1250 0.5052 0.0000 ( 22676 PWs)   bands (ev):

   -58.8756 -58.8611 -45.3942 -45.3905 -45.3830 -45.3794 -45.3749 -45.3712
   -45.3542 -45.3534 -45.3477 -45.3467 -45.3451 -45.3418 -45.3307 -45.3254
   -45.3246 -45.3239 -45.2975 -45.2957 -45.2950 -45.2688 -33.2257 -33.2051
   -33.0465 -33.0260 -32.9713 -32.9674 -10.9744 -10.8846 -10.5249 -10.4410
    -3.9629  -3.8713  -2.9538  -2.7290  -1.9075  -1.7066  -1.4130  -1.2917
    -0.4869  -0.3439  -0.2129  -0.0835   1.8370   1.9256   3.3299   3.4834
     4.0511   4.1180   5.1896   5.4211   6.4898   6.7580   8.2118

          k = 0.1250 0.5774 0.0000 ( 22694 PWs)   bands (ev):

   -58.8746 -58.8602 -45.3942 -45.3903 -45.3830 -45.3792 -45.3749 -45.3711
   -45.3543 -45.3534 -45.3477 -45.3468 -45.3451 -45.3416 -45.3306 -45.3254
   -45.3247 -45.3239 -45.2974 -45.2958 -45.2950 -45.2688 -33.2347 -33.2141
   -33.0500 -33.0294 -32.9689 -32.9651 -10.9272 -10.8585 -10.4155 -10.3499
    -4.1443  -4.0548  -2.8497  -2.7633  -2.0269  -1.7984  -1.4035  -1.3294
    -0.5008  -0.3552  -0.1923  -0.0459   1.8075   1.8901   3.5235   3.5640
     4.0311   4.1052   5.2783   5.5001   6.5079   6.7641   7.9820

          k = 0.1875 0.3248 0.0000 ( 22633 PWs)   bands (ev):

   -58.8826 -58.8681 -45.3943 -45.3917 -45.3831 -45.3806 -45.3750 -45.3725
   -45.3538 -45.3532 -45.3472 -45.3465 -45.3454 -45.3430 -45.3313 -45.3261
   -45.3243 -45.3237 -45.2981 -45.2954 -45.2948 -45.2695 -33.1511 -33.1305
   -33.0274 -33.0074 -32.9891 -32.9847 -11.3981 -11.2122 -11.0724 -10.9449
    -3.0506  -2.6372  -2.4638  -2.4414  -2.1577  -1.7320  -1.0962  -0.9909
    -0.7141  -0.6502   0.4111   0.4958   1.9271   2.1435   2.6997   2.9837
     3.8399   4.0665   4.7395   4.7933   6.0300   6.4476   8.4121

          k = 0.1875 0.3969 0.0000 ( 22633 PWs)   bands (ev):

   -58.8786 -58.8642 -45.3940 -45.3913 -45.3828 -45.3801 -45.3747 -45.3720
   -45.3541 -45.3533 -45.3474 -45.3467 -45.3450 -45.3425 -45.3310 -45.3257
   -45.3245 -45.3238 -45.2978 -45.2956 -45.2949 -45.2691 -33.1819 -33.1613
   -33.0500 -33.0296 -32.9791 -32.9751 -11.0913 -10.9246 -10.8704 -10.7874
    -3.1477  -3.0471  -2.9081  -2.7065  -1.8398  -1.4797  -1.4407  -1.2719
    -0.9960  -0.8823  -0.0364   0.1217   2.1677   2.3296   2.7552   3.0399
     4.0311   4.1128   4.6466   4.7808   6.3543   6.6946   8.8170

          k = 0.1875 0.4691 0.0000 ( 22655 PWs)   bands (ev):

   -58.8756 -58.8611 -45.3937 -45.3909 -45.3826 -45.3798 -45.3744 -45.3716
   -45.3542 -45.3534 -45.3476 -45.3468 -45.3447 -45.3422 -45.3307 -45.3254
   -45.3246 -45.3238 -45.2975 -45.2957 -45.2949 -45.2688 -33.2043 -33.1837
   -33.0685 -33.0480 -32.9713 -32.9675 -10.9034 -10.7959 -10.6238 -10.5453
    -3.5656  -3.4918  -2.9661  -2.7611  -1.8222  -1.6328  -1.4480  -1.2494
    -1.1558  -0.9829  -0.2996  -0.2058   2.1992   2.3378   3.0343   3.2558
     4.0498   4.0814   4.7650   4.9756   6.5215   6.7182   8.8127

          k = 0.1875 0.5413 0.0000 ( 22663 PWs)   bands (ev):

   -58.8739 -58.8595 -45.3936 -45.3907 -45.3824 -45.3796 -45.3743 -45.3715
   -45.3543 -45.3534 -45.3477 -45.3469 -45.3446 -45.3420 -45.3306 -45.3253
   -45.3247 -45.3239 -45.2974 -45.2958 -45.2950 -45.2687 -33.2160 -33.1954
   -33.0788 -33.0583 -32.9671 -32.9633 -10.8151 -10.7485 -10.4451 -10.3889
    -3.8442  -3.7546  -2.9057  -2.8091  -1.9354  -1.7058  -1.4801  -1.3559
    -1.1734  -1.0126  -0.3222  -0.2863   2.1316   2.2698   3.3994   3.5095
     3.8971   3.9545   5.0035   5.1306   6.4623   6.6472   8.6008

          k = 0.2500 0.4330 0.0000 ( 22621 PWs)   bands (ev):

   -58.8756 -58.8611 -45.3935 -45.3911 -45.3823 -45.3800 -45.3742 -45.3719
   -45.3542 -45.3534 -45.3476 -45.3468 -45.3445 -45.3424 -45.3307 -45.3254
   -45.3246 -45.3238 -45.2975 -45.2958 -45.2949 -45.2688 -33.1930 -33.1724
   -33.0800 -33.0595 -32.9713 -32.9675 -10.8531 -10.7211 -10.6822 -10.6297
    -3.3401  -3.2842  -2.9524  -2.7754  -1.8163  -1.5838  -1.5212  -1.4806
    -1.3472  -1.0553  -0.4360  -0.2171   2.5122   2.6228   2.7678   2.9938
     4.0541   4.0793   4.5903   4.8428   6.5454   6.6922   9.0152

          k = 0.2500 0.5052 0.0000 ( 22656 PWs)   bands (ev):

   -58.8735 -58.8591 -45.3931 -45.3912 -45.3819 -45.3800 -45.3738 -45.3719
   -45.3543 -45.3534 -45.3476 -45.3469 -45.3441 -45.3424 -45.3305 -45.3253
   -45.3248 -45.3238 -45.2973 -45.2959 -45.2950 -45.2687 -33.1956 -33.1750
   -33.1048 -33.0842 -32.9662 -32.9624 -10.7125 -10.6385 -10.5095 -10.4628
    -3.4874  -3.4083  -2.9409  -2.8513  -2.0545  -1.9624  -1.6658  -1.4709
    -1.1865  -1.0615  -0.6612  -0.4848   2.5334   2.6853   3.0292   3.1859
     3.8607   3.8927   4.8303   5.1396   6.3705   6.5579   8.9096

          k = 0.2500 0.5774 0.0000 ( 22665 PWs)   bands (ev):

   -58.8728 -58.8584 -45.3929 -45.3912 -45.3817 -45.3801 -45.3736 -45.3719
   -45.3544 -45.3534 -45.3476 -45.3469 -45.3439 -45.3424 -45.3305 -45.3252
   -45.3248 -45.3239 -45.2973 -45.2959 -45.2950 -45.2686 -33.1949 -33.1743
   -33.1151 -33.0945 -32.9644 -32.9606 -10.6627 -10.6165 -10.4358 -10.4027
    -3.5340  -3.4393  -2.9395  -2.8909  -2.1738  -2.1376  -1.5841  -1.3548
    -1.3035  -1.1657  -0.6698  -0.5319   2.4929   2.6474   3.3184   3.4512
     3.6003   3.6586   5.1067   5.2624   6.2405   6.3771   8.8667

          k = 0.3125 0.5413 0.0000 ( 22659 PWs)   bands (ev):

   -58.8724 -58.8580 -45.3924 -45.3916 -45.3813 -45.3804 -45.3731 -45.3723
   -45.3544 -45.3534 -45.3476 -45.3469 -45.3435 -45.3428 -45.3305 -45.3252
   -45.3248 -45.3239 -45.2972 -45.2959 -45.2950 -45.2686 -33.1760 -33.1554
   -33.1394 -33.1188 -32.9634 -32.9596 -10.5721 -10.5357 -10.4702 -10.4432
    -3.2391  -3.1351  -2.9601  -2.9225  -2.6105  -2.5165  -1.5655  -1.2873
    -1.1187  -1.0628  -0.9822  -0.7345   2.8405   3.0066   3.0278   3.1801
     3.4936   3.5441   5.2334   5.5607   5.9115   6.2499   8.7986

     the Fermi energy is     2.7655 ev

!    total energy              =   -2326.91795398 Ry
     total all-electron energy =    -35628.665783 Ry
     estimated scf accuracy    <          7.7E-09 Ry
     smearing contrib. (-TS)   =       0.00128746 Ry
     internal energy E=F+TS    =   -2326.91924144 Ry

     The total energy is F=E-TS. E is the sum of the following terms:
     one-electron contribution =  -11969.27586151 Ry
     hartree contribution      =    5982.78914808 Ry
     xc contribution           =    -152.76682466 Ry
     ewald contribution        =    4822.86702301 Ry
     one-center paw contrib.   =   -1010.53272636 Ry

     convergence has been achieved in  14 iterations

     negative rho (up, down):  1.288E-04 0.000E+00

     Forces acting on atoms (cartesian axes, Ry/au):

     atom    1 type  2   force =     0.00000000    0.00000000   -0.05830934
     atom    2 type  1   force =     0.00000000    0.00000000   -0.00047886
     atom    3 type  2   force =     0.00000000   -0.00000000    0.05797792
     atom    4 type  2   force =     0.00000000    0.00000000   -0.05784167
     atom    5 type  1   force =     0.00000000   -0.00000000   -0.00024449
     atom    6 type  2   force =     0.00000000    0.00000000    0.05889645

     Total force =     0.116517     Total SCF correction =     0.000319
     Energy error            =      2.7E-02 Ry
     Gradient error          =      5.9E-02 Ry/Bohr

     number of scf cycles    =   2
     number of bfgs steps    =   1

     energy             old  =   -2326.8907889360 Ry
     energy             new  =   -2326.9179539797 Ry

     CASE: energy            _new < energy            _old

     new trust radius        =       0.1011516532 bohr
     new conv_thr            =       0.0000000059 Ry


ATOMIC_POSITIONS (crystal)
Se               0.3333330000        0.6666670000        0.0641358327
Mo              -0.0000000000       -0.0000000000        0.1199927596
Se               0.6666670000        0.3333330000        0.1758662613
Se               0.3333330000        0.6666670000        0.2724504264
Mo               0.6666670000        0.3333330000        0.3282484468
Se               0.0000000000        0.0000000000        0.3842062732



     Writing config-only to output data dir ./tmp/relax/mose2_relax.save/ :
     XML data file
     NEW-OLD atomic charge density approx. for the potential

     negative rho (up, down):  1.150E-04 0.000E+00

     total cpu time spent up to now is      349.5 secs

     per-process dynamical memory:    64.9 Mb

     Self-consistent Calculation

     iteration #  1     ecut=    80.00 Ry     beta= 0.30
     Davidson diagonalization with overlap
     c_bands:  1 eigenvalues not converged
     c_bands:  1 eigenvalues not converged
     ethr =  1.00E-06,  avg # of iterations = 11.3

     negative rho (up, down):  1.037E-04 0.000E+00

     total cpu time spent up to now is      378.9 secs

     total energy              =   -2327.01068698 Ry
     estimated scf accuracy    <       0.03599627 Ry

     iteration #  2     ecut=    80.00 Ry     beta= 0.30
     Davidson diagonalization with overlap
     ethr =  3.91E-05,  avg # of iterations =  2.0

     negative rho (up, down):  9.147E-05 0.000E+00

     total cpu time spent up to now is      388.9 secs

     total energy              =   -2326.94503983 Ry
     estimated scf accuracy    <       0.00462634 Ry

     iteration #  3     ecut=    80.00 Ry     beta= 0.30
     Davidson diagonalization with overlap
     ethr =  5.03E-06,  avg # of iterations =  3.1

     negative rho (up, down):  5.811E-05 0.000E+00

     total cpu time spent up to now is      400.1 secs

     total energy              =   -2326.94421911 Ry
     estimated scf accuracy    <       0.00060100 Ry

     iteration #  4     ecut=    80.00 Ry     beta= 0.30
     Davidson diagonalization with overlap
     ethr =  6.53E-07,  avg # of iterations =  2.2

     negative rho (up, down):  6.911E-05 0.000E+00

     total cpu time spent up to now is      410.6 secs

     total energy              =   -2326.93952832 Ry
     estimated scf accuracy    <       0.00050868 Ry

     iteration #  5     ecut=    80.00 Ry     beta= 0.30
     Davidson diagonalization with overlap
     ethr =  5.53E-07,  avg # of iterations =  2.9

     negative rho (up, down):  2.887E-04 0.000E+00

     total cpu time spent up to now is      420.8 secs

     total energy              =   -2326.93401396 Ry
     estimated scf accuracy    <       0.00024615 Ry

     iteration #  6     ecut=    80.00 Ry     beta= 0.30
     Davidson diagonalization with overlap
     ethr =  2.68E-07,  avg # of iterations =  4.3

     negative rho (up, down):  2.122E-04 0.000E+00

     total cpu time spent up to now is      432.5 secs

     total energy              =   -2326.93434692 Ry
     estimated scf accuracy    <       0.00001551 Ry

     iteration #  7     ecut=    80.00 Ry     beta= 0.30
     Davidson diagonalization with overlap
     ethr =  1.69E-08,  avg # of iterations =  4.1

     negative rho (up, down):  1.689E-04 0.000E+00

     total cpu time spent up to now is      443.2 secs

     total energy              =   -2326.93434707 Ry
     estimated scf accuracy    <       0.00001100 Ry

     iteration #  8     ecut=    80.00 Ry     beta= 0.30
     Davidson diagonalization with overlap
     ethr =  1.20E-08,  avg # of iterations =  2.0

     negative rho (up, down):  1.660E-04 0.000E+00

     total cpu time spent up to now is      452.6 secs

     total energy              =   -2326.93434985 Ry
     estimated scf accuracy    <       0.00000062 Ry

     iteration #  9     ecut=    80.00 Ry     beta= 0.30
     Davidson diagonalization with overlap
     ethr =  6.72E-10,  avg # of iterations =  3.0

     negative rho (up, down):  1.696E-04 0.000E+00

     total cpu time spent up to now is      463.6 secs

     total energy              =   -2326.93434907 Ry
     estimated scf accuracy    <       0.00000123 Ry

     iteration # 10     ecut=    80.00 Ry     beta= 0.30
     Davidson diagonalization with overlap
     ethr =  6.72E-10,  avg # of iterations =  2.0

     negative rho (up, down):  1.715E-04 0.000E+00

     total cpu time spent up to now is      473.0 secs

     total energy              =   -2326.93434837 Ry
     estimated scf accuracy    <       0.00000019 Ry

     iteration # 11     ecut=    80.00 Ry     beta= 0.30
     Davidson diagonalization with overlap
     ethr =  2.11E-10,  avg # of iterations =  2.2

     negative rho (up, down):  1.679E-04 0.000E+00

     total cpu time spent up to now is      483.7 secs

     total energy              =   -2326.93434861 Ry
     estimated scf accuracy    <       0.00000034 Ry

     iteration # 12     ecut=    80.00 Ry     beta= 0.30
     Davidson diagonalization with overlap
     ethr =  2.11E-10,  avg # of iterations =  1.2

     negative rho (up, down):  1.567E-04 0.000E+00

     total cpu time spent up to now is      491.5 secs

     total energy              =   -2326.93434879 Ry
     estimated scf accuracy    <       0.00000018 Ry

     iteration # 13     ecut=    80.00 Ry     beta= 0.30
     Davidson diagonalization with overlap
     ethr =  1.92E-10,  avg # of iterations =  2.0

     negative rho (up, down):  1.471E-04 0.000E+00

     total cpu time spent up to now is      501.3 secs

     total energy              =   -2326.93434902 Ry
     estimated scf accuracy    <       0.00000002 Ry

     iteration # 14     ecut=    80.00 Ry     beta= 0.30
     Davidson diagonalization with overlap
     ethr =  1.72E-11,  avg # of iterations =  2.0

     negative rho (up, down):  1.306E-04 0.000E+00

     total cpu time spent up to now is      511.7 secs

     total energy              =   -2326.93434906 Ry
     estimated scf accuracy    <       0.00000001 Ry

     iteration # 15     ecut=    80.00 Ry     beta= 0.30
     Davidson diagonalization with overlap
     ethr =  1.58E-11,  avg # of iterations =  2.0

     negative rho (up, down):  1.186E-04 0.000E+00

     total cpu time spent up to now is      522.3 secs

     End of self-consistent calculation

          k = 0.0000 0.0000 0.0000 ( 22715 PWs)   bands (ev):

   -58.9017 -58.8798 -45.3705 -45.3705 -45.3511 -45.3511 -45.3498 -45.3498
   -45.3328 -45.3328 -45.3189 -45.3188 -45.3159 -45.3113 -45.3113 -45.3037
   -45.3000 -45.3000 -45.2788 -45.2620 -45.2620 -45.2411 -33.0287 -33.0197
   -32.9284 -32.9284 -32.8992 -32.8991 -12.6215 -12.3584 -11.6868 -11.3812
    -4.0187  -3.2552  -0.9333  -0.6507  -0.6507  -0.6146  -0.6146   0.3834
     1.3375   1.8206   1.8206   1.8456   1.8457   2.2122   3.0350   3.0350
     3.1545   3.1545   5.9845   5.9845   6.1451   6.1451   6.4528

          k = 0.0000 0.0722 0.0000 ( 22647 PWs)   bands (ev):

   -58.9007 -58.8788 -45.3705 -45.3703 -45.3510 -45.3509 -45.3498 -45.3497
   -45.3328 -45.3328 -45.3189 -45.3188 -45.3158 -45.3113 -45.3111 -45.3036
   -45.3000 -45.3000 -45.2787 -45.2620 -45.2620 -45.2409 -33.0262 -33.0173
   -32.9394 -32.9309 -32.9101 -32.9016 -12.5639 -12.3009 -11.6563 -11.3563
    -3.9443  -3.1812  -1.2885  -0.8694  -0.6194  -0.5820  -0.3172   0.5272
     1.3056   1.5514   1.6350   1.6543   1.6887   2.0833   3.0519   3.1353
     3.1691   3.2871   5.6712   5.8284   5.9212   6.1032   6.5597

          k = 0.0000 0.1443 0.0000 ( 22623 PWs)   bands (ev):

   -58.8979 -58.8760 -45.3704 -45.3697 -45.3510 -45.3503 -45.3498 -45.3491
   -45.3330 -45.3329 -45.3191 -45.3189 -45.3155 -45.3112 -45.3105 -45.3034
   -45.3002 -45.3001 -45.2784 -45.2622 -45.2621 -45.2407 -33.0194 -33.0105
   -32.9706 -32.9413 -32.9380 -32.9087 -12.3953 -12.1330 -11.5668 -11.2836
    -3.7308  -2.9702  -1.7451  -1.2980  -0.5455  -0.5036  -0.0390   0.5120
     0.8053   0.9401   1.3372   1.3881   1.4502   1.9271   2.9518   3.2586
     3.3887   3.5191   5.1332   5.2589   5.7949   6.0137   6.8189

          k = 0.0000 0.2165 0.0000 ( 22597 PWs)   bands (ev):

   -58.8937 -58.8718 -45.3704 -45.3689 -45.3510 -45.3498 -45.3495 -45.3483
   -45.3333 -45.3330 -45.3193 -45.3190 -45.3151 -45.3112 -45.3097 -45.3030
   -45.3004 -45.3002 -45.2780 -45.2624 -45.2622 -45.2403 -33.0177 -33.0084
   -33.0007 -32.9871 -32.9486 -32.9193 -12.1289 -11.8688 -11.4244 -11.1691
    -3.4178  -2.6724  -2.1260  -1.6935  -0.4933  -0.4500  -0.4422  -0.3629
     0.3233   0.8313   1.0875   1.1539   1.3701   1.6687   2.9346   3.3029
     3.5155   3.6653   4.7373   5.0967   5.7096   5.9593   7.1978

          k = 0.0000 0.2887 0.0000 ( 22635 PWs)   bands (ev):

   -58.8887 -58.8669 -45.3704 -45.3680 -45.3510 -45.3497 -45.3486 -45.3474
   -45.3335 -45.3331 -45.3196 -45.3191 -45.3146 -45.3112 -45.3088 -45.3025
   -45.3007 -45.3003 -45.2776 -45.2627 -45.2623 -45.2398 -33.0714 -33.0421
   -32.9967 -32.9878 -32.9611 -32.9318 -11.7910 -11.5374 -11.2364 -11.0198
    -3.1379  -2.4951  -2.2944  -1.8478  -1.4981  -1.3717  -0.5421  -0.4788
     0.2061   0.5895   1.0170   1.1046   1.1343   1.3055   2.9961   3.3949
     3.5350   3.6873   4.7752   5.3978   5.6998   5.9807   7.6834

          k = 0.0000 0.3608 0.0000 ( 22649 PWs)   bands (ev):

   -58.8838 -58.8619 -45.3704 -45.3671 -45.3509 -45.3497 -45.3477 -45.3465
   -45.3338 -45.3332 -45.3199 -45.3192 -45.3142 -45.3111 -45.3079 -45.3020
   -45.3010 -45.3004 -45.2771 -45.2630 -45.2624 -45.2394 -33.1251 -33.0957
   -32.9846 -32.9757 -32.9736 -32.9443 -11.4332 -11.1988 -11.0048 -10.8313
    -3.1100  -2.7461  -2.4338  -2.3378  -2.0469  -1.5898  -0.6849  -0.6119
    -0.1243   0.1974   0.8578   1.0300   1.0986   1.2221   3.2258   3.5241
     3.6208   3.6490   5.1699   5.7299   5.8748   6.0460   8.1587

          k = 0.0000 0.4330 0.0000 ( 22679 PWs)   bands (ev):

   -58.8796 -58.8577 -45.3704 -45.3664 -45.3509 -45.3497 -45.3469 -45.3457
   -45.3341 -45.3333 -45.3202 -45.3193 -45.3138 -45.3111 -45.3071 -45.3017
   -45.3012 -45.3005 -45.2767 -45.2632 -45.2625 -45.2390 -33.1703 -33.1409
   -32.9841 -32.9742 -32.9654 -32.9548 -11.1398 -10.9551 -10.7254 -10.5805
    -3.4813  -3.3668  -2.9685  -2.5811  -1.7984  -1.5377  -0.8416  -0.7626
    -0.4195  -0.0460   0.6947   0.8411   1.2167   1.3881   3.5482   3.5865
     3.6246   3.9156   5.6914   5.7611   6.1099   6.3006   7.8415

          k = 0.0000 0.5052 0.0000 ( 22676 PWs)   bands (ev):

   -58.8767 -58.8549 -45.3703 -45.3658 -45.3509 -45.3497 -45.3464 -45.3452
   -45.3342 -45.3333 -45.3203 -45.3193 -45.3135 -45.3111 -45.3066 -45.3014
   -45.3014 -45.3006 -45.2765 -45.2634 -45.2625 -45.2387 -33.2003 -33.1709
   -32.9911 -32.9673 -32.9618 -32.9585 -10.9630 -10.8365 -10.4585 -10.3422
    -4.0268  -3.9030  -2.9433  -2.6239  -1.9366  -1.6834  -0.9532  -0.8710
    -0.3883   0.0466   0.5856   0.6969   1.2964   1.5093   3.5992   3.6375
     3.9555   4.1710   5.7794   6.1401   6.1511   6.5348   7.4763

          k = 0.0000-0.5774 0.0000 ( 22704 PWs)   bands (ev):

   -58.8758 -58.8539 -45.3704 -45.3657 -45.3509 -45.3497 -45.3463 -45.3450
   -45.3343 -45.3334 -45.3204 -45.3193 -45.3134 -45.3111 -45.3065 -45.3014
   -45.3013 -45.3006 -45.2764 -45.2634 -45.2626 -45.2387 -33.2108 -33.1814
   -32.9936 -32.9648 -32.9643 -32.9560 -10.9026 -10.8028 -10.3431 -10.2484
    -4.2251  -4.1143  -2.8221  -2.6915  -2.0432  -1.8209  -0.9928  -0.9096
    -0.2674   0.1255   0.5313   0.6314   1.3221   1.5512   3.6219   3.6550
     4.1393   4.2597   5.7850   6.1648   6.3397   6.6222   7.2212

          k = 0.0625 0.1083 0.0000 ( 22621 PWs)   bands (ev):

   -58.8988 -58.8769 -45.3704 -45.3699 -45.3510 -45.3505 -45.3498 -45.3493
   -45.3330 -45.3328 -45.3190 -45.3189 -45.3156 -45.3112 -45.3107 -45.3034
   -45.3002 -45.3000 -45.2785 -45.2621 -45.2620 -45.2408 -33.0216 -33.0127
   -32.9602 -32.9361 -32.9309 -32.9067 -12.4508 -12.1882 -11.5963 -11.3075
    -3.8000  -3.0380  -1.6252  -1.1773  -0.5724  -0.5351  -0.0878   0.6301
     1.0490   1.0628   1.3553   1.3743   1.5236   2.0204   3.0020   3.2586
     3.2967   3.4070   5.3670   5.4203   5.7962   5.9472   6.7392

          k = 0.0625 0.1804 0.0000 ( 22619 PWs)   bands (ev):

   -58.8953 -58.8735 -45.3704 -45.3693 -45.3510 -45.3499 -45.3497 -45.3486
   -45.3332 -45.3329 -45.3192 -45.3190 -45.3152 -45.3112 -45.3101 -45.3031
   -45.3003 -45.3001 -45.2782 -45.2623 -45.2621 -45.2404 -33.0132 -33.0042
   -32.9980 -32.9687 -32.9458 -32.9164 -12.2329 -11.9716 -11.4805 -11.2141
    -3.5322  -2.7761  -2.0035  -1.5634  -0.5613  -0.5161  -0.0397   0.1441
     0.3989   0.6193   1.0765   1.1917   1.5023   1.9049   3.0150   3.2473
     3.4265   3.4925   5.0318   5.2095   5.5909   5.7846   7.0546

          k = 0.0625 0.2526 0.0000 ( 22644 PWs)   bands (ev):

   -58.8907 -58.8689 -45.3703 -45.3685 -45.3509 -45.3497 -45.3490 -45.3478
   -45.3334 -45.3330 -45.3195 -45.3191 -45.3148 -45.3111 -45.3093 -45.3027
   -45.3006 -45.3003 -45.2778 -45.2626 -45.2622 -45.2400 -33.0473 -33.0181
   -33.0018 -32.9928 -32.9584 -32.9291 -11.9289 -11.6715 -11.3163 -11.0835
    -3.2130  -2.4971  -2.2724  -1.8422  -1.0648  -0.9641  -0.4475  -0.4292
     0.2200   0.4632   0.8968   1.0027   1.4588   1.6991   2.9689   3.1835
     3.4968   3.6553   4.8834   5.1962   5.6139   5.7854   7.4872

          k = 0.0625 0.3248 0.0000 ( 22644 PWs)   bands (ev):

   -58.8858 -58.8639 -45.3703 -45.3676 -45.3509 -45.3496 -45.3482 -45.3469
   -45.3337 -45.3332 -45.3198 -45.3192 -45.3143 -45.3111 -45.3084 -45.3022
   -45.3009 -45.3004 -45.2773 -45.2629 -45.2623 -45.2396 -33.1000 -33.0706
   -32.9897 -32.9807 -32.9720 -32.9428 -11.5752 -11.3285 -11.1098 -10.9204
    -3.0563  -2.5227  -2.2415  -2.0347  -1.9087  -1.6905  -0.6704  -0.6645
     0.1467   0.3200   0.6037   0.6755   1.4425   1.5878   2.9863   3.2492
     3.6397   3.7728   4.9877   5.2923   5.8075   5.9713   8.0101

          k = 0.0625 0.3969 0.0000 ( 22664 PWs)   bands (ev):

   -58.8812 -58.8594 -45.3702 -45.3667 -45.3508 -45.3496 -45.3473 -45.3461
   -45.3340 -45.3333 -45.3200 -45.3193 -45.3139 -45.3110 -45.3075 -45.3018
   -45.3011 -45.3005 -45.2769 -45.2631 -45.2625 -45.2392 -33.1483 -33.1189
   -32.9853 -32.9778 -32.9696 -32.9554 -11.2410 -11.0273 -10.8575 -10.7063
    -3.1610  -3.0456  -2.7727  -2.5133  -1.8782  -1.4932  -0.9054  -0.8765
    -0.1186   0.0746   0.4008   0.4568   1.5203   1.5851   3.1661   3.3784
     3.7779   3.9206   5.2648   5.4581   5.9786   6.2869   8.2096

          k = 0.0625 0.4691 0.0000 ( 22676 PWs)   bands (ev):

   -58.8777 -58.8558 -45.3702 -45.3661 -45.3508 -45.3495 -45.3467 -45.3454
   -45.3341 -45.3333 -45.3203 -45.3193 -45.3136 -45.3110 -45.3069 -45.3015
   -45.3013 -45.3006 -45.2766 -45.2633 -45.2625 -45.2388 -33.1850 -33.1556
   -32.9947 -32.9695 -32.9655 -32.9605 -11.0072 -10.8543 -10.5743 -10.4466
    -3.7440  -3.6177  -2.9663  -2.6025  -1.7955  -1.5711  -1.0397  -0.9738
    -0.2864  -0.0133   0.3149   0.3678   1.5692   1.6082   3.4022   3.5243
     3.9456   4.1027   5.4409   5.7083   6.1523   6.5096   7.8693

          k = 0.0625 0.5413 0.0000 ( 22689 PWs)   bands (ev):

   -58.8758 -58.8539 -45.3702 -45.3658 -45.3508 -45.3495 -45.3464 -45.3451
   -45.3343 -45.3334 -45.3204 -45.3194 -45.3134 -45.3109 -45.3066 -45.3014
   -45.3013 -45.3006 -45.2764 -45.2634 -45.2626 -45.2387 -33.2048 -33.1753
   -32.9999 -32.9705 -32.9648 -32.9561 -10.8897 -10.7843 -10.3693 -10.2718
    -4.1216  -4.0069  -2.8582  -2.6564  -1.9862  -1.7441  -1.0503  -1.0294
    -0.2215   0.0852   0.2597   0.3068   1.5556   1.6273   3.5780   3.6308
     4.0958   4.2181   5.5135   5.8516   6.3206   6.6171   7.5066

          k = 0.1250 0.2165 0.0000 ( 22647 PWs)   bands (ev):

   -58.8914 -58.8696 -45.3703 -45.3687 -45.3509 -45.3496 -45.3492 -45.3480
   -45.3334 -45.3330 -45.3194 -45.3191 -45.3149 -45.3111 -45.3095 -45.3028
   -45.3006 -45.3002 -45.2778 -45.2626 -45.2622 -45.2401 -33.0372 -33.0078
   -33.0037 -32.9948 -32.9590 -32.9297 -11.9762 -11.7177 -11.3435 -11.1054
    -3.2426  -2.5027  -2.2503  -1.8262  -0.9463  -0.8678  -0.2153  -0.0829
    -0.0333   0.0474   0.8954   1.0895   1.5761   1.9059   3.0349   3.0818
     3.2738   3.6631   5.1199   5.2772   5.3390   5.5849   7.4226

          k = 0.1250 0.2887 0.0000 ( 22643 PWs)   bands (ev):

   -58.8868 -58.8650 -45.3701 -45.3679 -45.3507 -45.3495 -45.3485 -45.3472
   -45.3336 -45.3331 -45.3197 -45.3192 -45.3145 -45.3109 -45.3087 -45.3023
   -45.3008 -45.3004 -45.2774 -45.2628 -45.2623 -45.2397 -33.0822 -33.0528
   -32.9930 -32.9838 -32.9750 -32.9461 -11.6504 -11.3981 -11.1641 -10.9663
    -3.0037  -2.3835  -2.3086  -1.8446  -1.6835  -1.5915  -0.6472  -0.5494
    -0.1542  -0.0610   0.6996   0.7866   1.6695   1.9201   2.8010   3.0048
     3.5587   3.8670   4.8990   4.9864   5.5845   5.9506   7.9003

          k = 0.1250 0.3608 0.0000 ( 22643 PWs)   bands (ev):

   -58.8823 -58.8604 -45.3700 -45.3672 -45.3506 -45.3493 -45.3477 -45.3465
   -45.3339 -45.3333 -45.3199 -45.3193 -45.3140 -45.3108 -45.3079 -45.3019
   -45.3010 -45.3005 -45.2770 -45.2630 -45.2625 -45.2392 -33.1265 -33.0971
   -32.9936 -32.9800 -32.9733 -32.9621 -11.3044 -11.0690 -10.9457 -10.7960
    -3.0033  -2.6328  -2.4336  -2.3967  -1.9987  -1.5167  -1.0308  -0.9437
    -0.2474  -0.1211   0.2457   0.3887   1.8014   1.9786   2.8024   3.0855
     3.8400   4.0185   4.8136   4.9476   5.8887   6.3050   8.4029

          k = 0.1250 0.4330 0.0000 ( 22664 PWs)   bands (ev):

   -58.8784 -58.8565 -45.3699 -45.3666 -45.3504 -45.3492 -45.3471 -45.3459
   -45.3341 -45.3334 -45.3202 -45.3194 -45.3137 -45.3106 -45.3073 -45.3016
   -45.3013 -45.3006 -45.2766 -45.2633 -45.2625 -45.2389 -33.1637 -33.1343
   -33.0073 -32.9782 -32.9711 -32.9621 -11.0214 -10.8379 -10.6855 -10.5620
    -3.3362  -3.2373  -2.9012  -2.5620  -1.7011  -1.4514  -1.2723  -1.0986
    -0.3573  -0.2088  -0.0676   0.0172   1.8765   1.9803   3.0197   3.2787
     4.0290   4.1248   4.8885   5.1059   6.1538   6.5232   8.4298

          k = 0.1250 0.5052 0.0000 ( 22676 PWs)   bands (ev):

   -58.8758 -58.8539 -45.3698 -45.3661 -45.3504 -45.3491 -45.3467 -45.3455
   -45.3342 -45.3334 -45.3203 -45.3194 -45.3134 -45.3106 -45.3069 -45.3014
[...]

          k = 0.0000-0.5774 0.0000 ( 22704 PWs)   bands (ev):

   -58.8810 -58.8625 -45.3290 -45.3244 -45.3212 -45.3166 -45.3100 -45.3053
   -45.2929 -45.2922 -45.2919 -45.2875 -45.2779 -45.2768 -45.2761 -45.2752
   -45.2730 -45.2593 -45.2531 -45.2474 -45.2465 -45.2246 -33.1842 -33.1597
   -32.9744 -32.9649 -32.9561 -32.9502 -10.7387 -10.6662 -10.2464 -10.1714
    -4.0497  -3.9652  -2.7192  -2.6055  -1.9531  -1.7605  -0.7630  -0.7018
    -0.2041   0.1329   0.5127   0.5958   1.4703   1.6422   3.6983   3.7261
     4.0985   4.2158   5.6670   5.9476   6.1947   6.4663   7.1515

          k = 0.0625 0.1083 0.0000 ( 22621 PWs)   bands (ev):

   -58.9035 -58.8851 -45.3291 -45.3286 -45.3213 -45.3208 -45.3100 -45.3095
   -45.2923 -45.2918 -45.2916 -45.2914 -45.2765 -45.2764 -45.2752 -45.2748
   -45.2747 -45.2614 -45.2552 -45.2461 -45.2460 -45.2267 -33.0179 -33.0089
   -32.9414 -32.9182 -32.9172 -32.8939 -12.2693 -12.0776 -11.5243 -11.3019
    -3.6055  -2.9767  -1.4647  -0.9863  -0.3075  -0.2755  -0.0002   0.5723
     1.0731   1.1602   1.4679   1.4886   1.5503   1.9307   3.0251   3.2031
     3.3652   3.4482   5.2566   5.2821   5.6799   5.7894   6.7149

          k = 0.0625 0.1804 0.0000 ( 22619 PWs)   bands (ev):

   -58.9001 -58.8817 -45.3290 -45.3279 -45.3213 -45.3202 -45.3100 -45.3089
   -45.2922 -45.2918 -45.2915 -45.2911 -45.2767 -45.2765 -45.2750 -45.2748
   -45.2747 -45.2611 -45.2549 -45.2463 -45.2461 -45.2264 -33.0099 -33.0010
   -32.9781 -32.9538 -32.9277 -32.9034 -12.0543 -11.8645 -11.4034 -11.1963
    -3.3309  -2.7059  -1.8200  -1.3927  -0.3085  -0.2714   0.0268   0.2511
     0.4839   0.6428   1.1854   1.2690   1.4822   1.8520   3.0000   3.2110
     3.4150   3.4661   4.9169   5.0796   5.4933   5.6342   7.0304

          k = 0.0625 0.2526 0.0000 ( 22644 PWs)   bands (ev):

   -58.8956 -58.8772 -45.3290 -45.3271 -45.3212 -45.3194 -45.3099 -45.3081
   -45.2922 -45.2920 -45.2916 -45.2903 -45.2770 -45.2766 -45.2752 -45.2749
   -45.2744 -45.2607 -45.2544 -45.2466 -45.2462 -45.2260 -33.0259 -33.0018
   -32.9993 -32.9901 -32.9401 -32.9158 -11.7537 -11.5684 -11.2323 -11.0483
    -2.9917  -2.3930  -2.0981  -1.7144  -0.9021  -0.8271  -0.2578  -0.2251
     0.2673   0.5003   0.9840   1.0541   1.4675   1.6928   2.9158   3.1272
     3.4824   3.6020   4.7707   5.0642   5.4985   5.6308   7.4606

          k = 0.0625 0.3248 0.0000 ( 22644 PWs)   bands (ev):

   -58.8908 -58.8723 -45.3290 -45.3262 -45.3212 -45.3185 -45.3099 -45.3072
   -45.2923 -45.2921 -45.2917 -45.2894 -45.2773 -45.2767 -45.2755 -45.2750
   -45.2739 -45.2602 -45.2540 -45.2469 -45.2463 -45.2255 -33.0768 -33.0525
   -32.9880 -32.9790 -32.9534 -32.9292 -11.4028 -11.2274 -11.0194 -10.8653
    -2.8088  -2.3610  -2.0944  -1.8999  -1.7984  -1.6101  -0.4969  -0.4651
     0.1710   0.3316   0.6932   0.7227   1.5012   1.6256   2.9330   3.1904
     3.6289   3.7278   4.8644   5.1751   5.6484   5.7902   7.9775

          k = 0.0625 0.3969 0.0000 ( 22664 PWs)   bands (ev):

   -58.8863 -58.8678 -45.3289 -45.3254 -45.3211 -45.3177 -45.3098 -45.3064
   -45.2926 -45.2921 -45.2918 -45.2886 -45.2776 -45.2768 -45.2758 -45.2751
   -45.2735 -45.2598 -45.2536 -45.2471 -45.2464 -45.2251 -33.1236 -33.0992
   -32.9776 -32.9686 -32.9657 -32.9415 -11.0714 -10.9208 -10.7616 -10.6359
    -2.9403  -2.8660  -2.6456  -2.4013  -1.7539  -1.4249  -0.7555  -0.6905
    -0.0762   0.0653   0.4679   0.5144   1.5932   1.6472   3.1365   3.3504
     3.7821   3.8815   5.1386   5.3297   5.7939   6.0784   8.1213

          k = 0.0625 0.4691 0.0000 ( 22676 PWs)   bands (ev):

   -58.8828 -58.8644 -45.3289 -45.3248 -45.3211 -45.3170 -45.3098 -45.3058
   -45.2928 -45.2921 -45.2919 -45.2880 -45.2778 -45.2768 -45.2760 -45.2751
   -45.2732 -45.2595 -45.2533 -45.2473 -45.2465 -45.2248 -33.1592 -33.1347
   -32.9755 -32.9692 -32.9606 -32.9510 -10.8420 -10.7330 -10.4741 -10.3706
    -3.5663  -3.4669  -2.8066  -2.5158  -1.6913  -1.5038  -0.8711  -0.7832
    -0.2284  -0.0040   0.3656   0.3999   1.6346   1.6735   3.4151   3.5440
     3.9508   4.0657   5.3389   5.5343   5.9593   6.3125   7.7769

          k = 0.0625 0.5413 0.0000 ( 22689 PWs)   bands (ev):

   -58.8810 -58.8625 -45.3289 -45.3245 -45.3211 -45.3167 -45.3098 -45.3054
   -45.2929 -45.2920 -45.2920 -45.2877 -45.2779 -45.2769 -45.2761 -45.2752
   -45.2730 -45.2593 -45.2531 -45.2474 -45.2465 -45.2246 -33.1783 -33.1539
   -32.9805 -32.9649 -32.9565 -32.9558 -10.7266 -10.6503 -10.2707 -10.1931
    -3.9464  -3.8589  -2.7365  -2.5744  -1.8861  -1.6838  -0.8555  -0.8344
    -0.1536   0.1031   0.3028   0.3189   1.6208   1.6823   3.6365   3.6880
     4.0732   4.1827   5.4129   5.6597   6.1592   6.4457   7.4280

          k = 0.1250 0.2165 0.0000 ( 22647 PWs)   bands (ev):

   -58.8963 -58.8779 -45.3289 -45.3273 -45.3212 -45.3196 -45.3099 -45.3083
   -45.2921 -45.2920 -45.2916 -45.2905 -45.2770 -45.2766 -45.2752 -45.2749
   -45.2745 -45.2608 -45.2545 -45.2465 -45.2462 -45.2260 -33.0160 -33.0011
   -32.9922 -32.9917 -32.9406 -32.9164 -11.8006 -11.6142 -11.2606 -11.0728
    -3.0258  -2.4100  -2.0706  -1.6844  -0.7500  -0.6890  -0.1394   0.0736
     0.0954   0.1559   0.9652   1.1150   1.5593   1.8769   3.0141   3.0547
     3.2509   3.5530   5.0494   5.1536   5.2166   5.4282   7.3968

          k = 0.1250 0.2887 0.0000 ( 22643 PWs)   bands (ev):

   -58.8918 -58.8734 -45.3288 -45.3266 -45.3210 -45.3188 -45.3097 -45.3075
   -45.2923 -45.2920 -45.2917 -45.2898 -45.2772 -45.2767 -45.2754 -45.2750
   -45.2740 -45.2603 -45.2541 -45.2468 -45.2463 -45.2256 -33.0596 -33.0352
   -32.9908 -32.9818 -32.9566 -32.9324 -11.4777 -11.2979 -11.0749 -10.9147
    -2.7512  -2.2240  -2.1625  -1.7746  -1.5184  -1.4538  -0.5308  -0.4270
    -0.0032   0.0631   0.7359   0.8011   1.6809   1.9240   2.7571   2.9521
     3.5366   3.7812   4.8265   4.8776   5.4362   5.7673   7.8721

          k = 0.1250 0.3608 0.0000 ( 22643 PWs)   bands (ev):

   -58.8873 -58.8689 -45.3287 -45.3258 -45.3209 -45.3181 -45.3096 -45.3068
   -45.2925 -45.2919 -45.2919 -45.2890 -45.2775 -45.2768 -45.2757 -45.2751
   -45.2736 -45.2599 -45.2537 -45.2470 -45.2464 -45.2252 -33.1025 -33.0781
   -32.9811 -32.9721 -32.9715 -32.9486 -11.1334 -10.9683 -10.8519 -10.7251
    -2.7535  -2.4579  -2.2988  -2.2603  -1.8750  -1.4516  -0.9054  -0.8164
    -0.1199  -0.0275   0.2958   0.3890   1.8322   1.9974   2.7629   3.0215
     3.8330   3.9805   4.7307   4.8313   5.7132   6.0984   8.3690

          k = 0.1250 0.4330 0.0000 ( 22664 PWs)   bands (ev):

   -58.8835 -58.8651 -45.3286 -45.3252 -45.3208 -45.3175 -45.3095 -45.3062
   -45.2927 -45.2920 -45.2917 -45.2884 -45.2777 -45.2769 -45.2759 -45.2752
   -45.2733 -45.2596 -45.2533 -45.2472 -45.2465 -45.2248 -33.1386 -33.1141
   -32.9877 -32.9707 -32.9650 -32.9602 -10.8551 -10.7267 -10.5855 -10.4810
    -3.1558  -3.0729  -2.7343  -2.4458  -1.5740  -1.3621  -1.1467  -0.9785
    -0.2454  -0.1378  -0.0183   0.0351   1.8977   1.9896   3.0056   3.2406
     4.0424   4.1220   4.8015   4.9667   5.9622   6.3169   8.3262

          k = 0.1250 0.5052 0.0000 ( 22676 PWs)   bands (ev):

   -58.8810 -58.8625 -45.3285 -45.3248 -45.3207 -45.3171 -45.3094 -45.3058
   -45.2929 -45.2920 -45.2917 -45.2880 -45.2778 -45.2769 -45.2760 -45.2752
   -45.2730 -45.2593 -45.2531 -45.2474 -45.2466 -45.2246 -33.1625 -33.1380
   -32.9968 -32.9725 -32.9650 -32.9561 -10.6913 -10.6050 -10.3344 -10.2528
    -3.6564  -3.5673  -2.7301  -2.5262  -1.7058  -1.5142  -1.1207  -0.9873
    -0.3356  -0.2159  -0.1130   0.0005   1.8565   1.9203   3.3702   3.5282
     4.0968   4.1581   4.9475   5.1259   6.1328   6.3991   8.0324

          k = 0.1250 0.5774 0.0000 ( 22694 PWs)   bands (ev):

   -58.8801 -58.8617 -45.3285 -45.3247 -45.3207 -45.3169 -45.3094 -45.3056
   -45.2929 -45.2921 -45.2916 -45.2879 -45.2779 -45.2770 -45.2761 -45.2753
   -45.2729 -45.2593 -45.2530 -45.2474 -45.2466 -45.2245 -33.1709 -33.1464
   -33.0000 -32.9757 -32.9629 -32.9541 -10.6349 -10.5681 -10.2289 -10.1644
    -3.8378  -3.7522  -2.6728  -2.5800  -1.8137  -1.6106  -1.0938  -1.0136
    -0.3633  -0.2435  -0.0789   0.0360   1.8223   1.8805   3.6251   3.6634
     4.0350   4.1234   5.0324   5.1886   6.1948   6.4273   7.8075

          k = 0.1875 0.3248 0.0000 ( 22633 PWs)   bands (ev):

   -58.8877 -58.8693 -45.3285 -45.3260 -45.3208 -45.3183 -45.3095 -45.3070
   -45.2925 -45.2919 -45.2917 -45.2892 -45.2774 -45.2768 -45.2757 -45.2751
   -45.2736 -45.2599 -45.2537 -45.2470 -45.2464 -45.2252 -33.0930 -33.0686
   -32.9835 -32.9754 -32.9728 -32.9530 -11.1544 -10.9838 -10.8835 -10.7573
    -2.6758  -2.2670  -2.1611  -2.1203  -1.9282  -1.5109  -0.9143  -0.8143
    -0.3836  -0.3261   0.4175   0.4948   1.9569   2.1809   2.6006   2.8576
     3.8162   4.0162   4.5578   4.6158   5.6945   6.1022   8.3674

          k = 0.1875 0.3969 0.0000 ( 22633 PWs)   bands (ev):

   -58.8839 -58.8655 -45.3283 -45.3256 -45.3205 -45.3178 -45.3092 -45.3065
   -45.2926 -45.2920 -45.2914 -45.2888 -45.2776 -45.2769 -45.2758 -45.2752
   -45.2733 -45.2596 -45.2533 -45.2472 -45.2465 -45.2249 -33.1218 -33.0973
   -33.0000 -32.9762 -32.9715 -32.9621 -10.8462 -10.6988 -10.6578 -10.5713
    -2.8051  -2.7438  -2.6027  -2.3753  -1.6123  -1.2839  -1.2409  -1.0724
    -0.7252  -0.6346   0.0004   0.1246   2.1815   2.3390   2.6665   2.9171
     4.0505   4.1674   4.4854   4.5644   5.9756   6.3239   8.7258

          k = 0.1875 0.4691 0.0000 ( 22655 PWs)   bands (ev):

   -58.8810 -58.8626 -45.3280 -45.3253 -45.3202 -45.3175 -45.3090 -45.3062
   -45.2928 -45.2921 -45.2912 -45.2884 -45.2777 -45.2770 -45.2760 -45.2753
   -45.2730 -45.2593 -45.2531 -45.2473 -45.2466 -45.2246 -33.1427 -33.1182
   -33.0171 -32.9928 -32.9650 -32.9561 -10.6384 -10.5377 -10.4136 -10.3353
    -3.2638  -3.1928  -2.6741  -2.4766  -1.5834  -1.4161  -1.2373  -1.0284
    -0.9753  -0.8234  -0.2277  -0.1595   2.1640   2.2888   3.0094   3.1916
     4.1157   4.1691   4.5876   4.7517   6.1489   6.3571   8.6073

          k = 0.1875 0.5413 0.0000 ( 22663 PWs)   bands (ev):

   -58.8794 -58.8610 -45.3279 -45.3251 -45.3201 -45.3173 -45.3088 -45.3060
   -45.2929 -45.2921 -45.2911 -45.2883 -45.2778 -45.2771 -45.2761 -45.2754
   -45.2729 -45.2592 -45.2529 -45.2474 -45.2467 -45.2245 -33.1536 -33.1292
   -33.0267 -33.0024 -32.9614 -32.9525 -10.5344 -10.4701 -10.2404 -10.1838
    -3.5457  -3.4604  -2.6549  -2.5552  -1.6835  -1.4695  -1.2597  -1.1548
    -1.0368  -0.8974  -0.2389  -0.1930   2.0860   2.2053   3.4082   3.5002
     3.9667   4.0237   4.8040   4.9100   6.1445   6.3133   8.4053

          k = 0.2500 0.4330 0.0000 ( 22621 PWs)   bands (ev):

   -58.8810 -58.8626 -45.3278 -45.3255 -45.3200 -45.3177 -45.3087 -45.3064
   -45.2928 -45.2921 -45.2909 -45.2886 -45.2777 -45.2770 -45.2760 -45.2753
   -45.2730 -45.2593 -45.2531 -45.2473 -45.2466 -45.2246 -33.1323 -33.1078
   -33.0277 -33.0034 -32.9650 -32.9561 -10.6010 -10.4872 -10.4550 -10.3988
    -3.0369  -2.9917  -2.6212  -2.4493  -1.6120  -1.4156  -1.2757  -1.2494
    -1.1527  -0.8846  -0.3898  -0.2075   2.4663   2.6247   2.6921   2.8531
     4.0919   4.1753   4.4664   4.6536   6.1658   6.3370   8.8266

          k = 0.2500 0.5052 0.0000 ( 22656 PWs)   bands (ev):

   -58.8790 -58.8606 -45.3274 -45.3255 -45.3196 -45.3177 -45.3083 -45.3065
   -45.2928 -45.2922 -45.2905 -45.2887 -45.2778 -45.2771 -45.2760 -45.2754
   -45.2728 -45.2592 -45.2529 -45.2473 -45.2467 -45.2244 -33.1348 -33.1103
   -33.0508 -33.0264 -32.9605 -32.9517 -10.4470 -10.3776 -10.2850 -10.2361
    -3.1944  -3.1212  -2.6268  -2.5401  -1.7893  -1.6973  -1.5068  -1.3459
    -1.0530  -0.9210  -0.5901  -0.4365   2.4547   2.6013   2.9974   3.1119
     3.9426   3.9712   4.6856   4.9719   6.0719   6.2187   8.6563

          k = 0.2500 0.5774 0.0000 ( 22665 PWs)   bands (ev):

   -58.8783 -58.8599 -45.3272 -45.3256 -45.3194 -45.3178 -45.3081 -45.3065
   -45.2928 -45.2922 -45.2904 -45.2887 -45.2778 -45.2772 -45.2761 -45.2754
   -45.2728 -45.2591 -45.2529 -45.2474 -45.2468 -45.2244 -33.1342 -33.1098
   -33.0603 -33.0360 -32.9590 -32.9502 -10.3919 -10.3466 -10.2125 -10.1767
    -3.2440  -3.1549  -2.6436  -2.5824  -1.9071  -1.8510  -1.4458  -1.2390
    -1.1943  -1.0585  -0.5802  -0.4551   2.4146   2.5557   3.2374   3.3714
     3.7271   3.7764   4.9200   5.1075   5.9595   6.0919   8.5957

          k = 0.3125 0.5413 0.0000 ( 22659 PWs)   bands (ev):

   -58.8780 -58.8595 -45.3267 -45.3259 -45.3189 -45.3181 -45.3077 -45.3069
   -45.2928 -45.2923 -45.2899 -45.2891 -45.2778 -45.2772 -45.2761 -45.2755
   -45.2728 -45.2591 -45.2528 -45.2473 -45.2468 -45.2244 -33.1167 -33.0923
   -33.0829 -33.0585 -32.9581 -32.9493 -10.3107 -10.2746 -10.2332 -10.2043
    -2.9515  -2.8518  -2.6401  -2.5975  -2.3458  -2.2576  -1.4452  -1.1967
    -1.0052  -0.9156  -0.9013  -0.6854   2.7196   2.8776   2.9574   3.1164
     3.6448   3.6628   5.0656   5.3779   5.6815   5.9775   8.5077

     the Fermi energy is     2.6774 ev

!    total energy              =   -2326.93930476 Ry
     total all-electron energy =    -35628.687134 Ry
     estimated scf accuracy    <          5.2E-11 Ry
     smearing contrib. (-TS)   =       0.00107726 Ry
     internal energy E=F+TS    =   -2326.94038202 Ry

     The total energy is F=E-TS. E is the sum of the following terms:
     one-electron contribution =  -11351.71245555 Ry
     hartree contribution      =    5674.17600936 Ry
     xc contribution           =    -152.47069725 Ry
     ewald contribution        =    4513.58157969 Ry
     one-center paw contrib.   =   -1010.51481828 Ry

     convergence has been achieved in   9 iterations

     negative rho (up, down):  1.173E-04 0.000E+00

     Forces acting on atoms (cartesian axes, Ry/au):

     atom    1 type  2   force =     0.00000000    0.00000000    0.00030291
     atom    2 type  1   force =     0.00000000    0.00000000   -0.00001048
     atom    3 type  2   force =     0.00000000    0.00000000   -0.00016488
     atom    4 type  2   force =     0.00000000   -0.00000000    0.00048989
     atom    5 type  1   force =     0.00000000    0.00000000   -0.00013205
     atom    6 type  2   force =     0.00000000    0.00000000   -0.00048540

     Total force =     0.000782     Total SCF correction =     0.000117
     SCF correction compared to forces is large: reduce conv_thr to get better values
     Energy error            =      1.2E-05 Ry
     Gradient error          =      4.9E-04 Ry/Bohr

     bfgs converged in  14 scf cycles and  13 bfgs steps
     (criteria: energy <  1.0E-04 Ry, force <  1.0E-03 Ry/Bohr)

     End of BFGS Geometry Optimization

     Final energy             =   -2326.9393047630 Ry

     File ./tmp/relax/mose2_relax.bfgs deleted, as requested
Begin final coordinates

ATOMIC_POSITIONS (crystal)
Se               0.3333330000        0.6666670000        0.0583408010
Mo              -0.0000000000       -0.0000000000        0.1157206353
Se               0.6666670000        0.3333330000        0.1731985991
Se               0.3333330000        0.6666670000        0.2750848551
Mo               0.6666670000        0.3333330000        0.3325488170
Se               0.0000000000        0.0000000000        0.3900062926
End final coordinates



     Writing all to output data dir ./tmp/relax/mose2_relax.save/ :
     XML data file, charge density, pseudopotentials, collected wavefunctions

     init_run     :      7.87s CPU      8.00s WALL (       1 calls)
     electrons    :   2003.83s CPU   2044.91s WALL (      14 calls)
     update_pot   :      3.81s CPU      4.12s WALL (      13 calls)
     forces       :     32.00s CPU     33.28s WALL (      14 calls)

     Called by init_run:
     wfcinit      :      2.37s CPU      2.38s WALL (       1 calls)
     potinit      :      5.15s CPU      5.19s WALL (       1 calls)
     hinit0       :      0.05s CPU      0.05s WALL (       1 calls)

     Called by electrons:
     c_bands      :   1708.15s CPU   1722.37s WALL (     189 calls)
     sum_band     :    182.89s CPU    195.21s WALL (     189 calls)
     v_of_rho     :     49.11s CPU     53.17s WALL (     197 calls)
     newd         :     41.36s CPU     52.25s WALL (     197 calls)
     PAW_pot      :     12.77s CPU     13.21s WALL (     210 calls)
     mix_rho      :     21.10s CPU     21.27s WALL (     189 calls)
     vdW_kernel   :      4.88s CPU      4.88s WALL (       1 calls)

     Called by c_bands:
     init_us_2    :     11.52s CPU     11.59s WALL (   12180 calls)
     cegterg      :   1675.32s CPU   1688.91s WALL (    5670 calls)

     Called by *egterg:
     cdiaghg      :     87.16s CPU     87.27s WALL (   21152 calls)
     h_psi        :    701.32s CPU    706.68s WALL (   21752 calls)
     s_psi        :    145.60s CPU    145.78s WALL (   21752 calls)
     g_psi        :      3.77s CPU      3.78s WALL (   16052 calls)

     Called by h_psi:
     h_psi:calbec :    189.45s CPU    191.04s WALL (   21752 calls)
     vloc_psi     :    363.92s CPU    367.54s WALL (   21752 calls)
                                        0.00s GPU  (   21752 calls)
     add_vuspsi   :    145.21s CPU    145.37s WALL (   21752 calls)

     General routines
     calbec       :    282.56s CPU    284.90s WALL (   29492 calls)
     fft          :     23.51s CPU     23.74s WALL (   13256 calls)
     ffts         :      8.41s CPU      8.46s WALL (   21173 calls)
     fftw         :    387.43s CPU    391.34s WALL ( 1972028 calls)
     interpolate  :      0.45s CPU      0.46s WALL (     197 calls)

     Parallel routines

     PWSCF        :  34m17.03s CPU  35m 0.72s WALL


   This run was terminated on:  23:13:33  19Jun2026            

=------------------------------------------------------------------------------=
   JOB DONE.
=------------------------------------------------------------------------------=
Note: The following floating-point exceptions are signalling: IEEE_UNDERFLOW_FLAG IEEE_DENORMAL
Note: The following floating-point exceptions are signalling: IEEE_UNDERFLOW_FLAG IEEE_DENORMAL
Note: The following floating-point exceptions are signalling: IEEE_UNDERFLOW_FLAG IEEE_DENORMAL
Note: The following floating-point exceptions are signalling: IEEE_UNDERFLOW_FLAG IEEE_DENORMAL
Note: The following floating-point exceptions are signalling: IEEE_UNDERFLOW_FLAG IEEE_DENORMAL
Note: The following floating-point exceptions are signalling: IEEE_UNDERFLOW_FLAG IEEE_DENORMAL
Note: The following floating-point exceptions are signalling: IEEE_UNDERFLOW_FLAG IEEE_DENORMAL
Note: The following floating-point exceptions are signalling: IEEE_UNDERFLOW_FLAG IEEE_DENORMAL
Note: The following floating-point exceptions are signalling: IEEE_UNDERFLOW_FLAG IEEE_DENORMAL
Note: The following floating-point exceptions are signalling: IEEE_UNDERFLOW_FLAG IEEE_DENORMAL
Note: The following floating-point exceptions are signalling: IEEE_UNDERFLOW_FLAG IEEE_DENORMAL
Note: The following floating-point exceptions are signalling: IEEE_UNDERFLOW_FLAG IEEE_DENORMAL
Note: The following floating-point exceptions are signalling: IEEE_UNDERFLOW_FLAG IEEE_DENORMAL
Note: The following floating-point exceptions are signalling: IEEE_UNDERFLOW_FLAG IEEE_DENORMAL
Note: The following floating-point exceptions are signalling: IEEE_UNDERFLOW_FLAG IEEE_DENORMAL
Note: The following floating-point exceptions are signalling: IEEE_UNDERFLOW_FLAG IEEE_DENORMAL
Note: The following floating-point exceptions are signalling: IEEE_UNDERFLOW_FLAG IEEE_DENORMAL
Note: The following floating-point exceptions are signalling: IEEE_UNDERFLOW_FLAG IEEE_DENORMAL
Note: The following floating-point exceptions are signalling: IEEE_UNDERFLOW_FLAG IEEE_DENORMAL
Note: The following floating-point exceptions are signalling: IEEE_UNDERFLOW_FLAG IEEE_DENORMAL
Note: The following floating-point exceptions are signalling: IEEE_UNDERFLOW_FLAG IEEE_DENORMAL
Note: The following floating-point exceptions are signalling: IEEE_UNDERFLOW_FLAG IEEE_DENORMAL
Note: The following floating-point exceptions are signalling: IEEE_UNDERFLOW_FLAG IEEE_DENORMAL
Note: The following floating-point exceptions are signalling: IEEE_UNDERFLOW_FLAG IEEE_DENORMAL
